MODEL 1
REMARK VINA RESULT:    54.058      0.000      0.000
REMARK INTER + INTRA:          69.918
REMARK INTER:                  68.280
REMARK INTRA:                   1.638
REMARK UNBOUND:                 1.638
REMARK  Name = reference_warfarin_chainA.pdb
REMARK  6 active torsions:
REMARK  status: ('A' for Active; 'I' for Inactive)
REMARK    1  A    between atoms: C1_1  and  C2_2
REMARK    2  A    between atoms: C2_2  and  C4_4
REMARK    3  A    between atoms: C4_4  and  C5_5
REMARK    4  A    between atoms: C5_5  and  C6_6
REMARK    5  A    between atoms: C5_5  and  C12_12
REMARK    6  A    between atoms: C13_13  and  O14_14
REMARK                            x       y       z     vdW  Elec       q    Type
REMARK                         _______ _______ _______ _____ _____    ______ ____
ROOT
ATOM      1  C12 SWF A 404     -12.357  23.329  59.925  0.00  0.00    +0.000 C 
ATOM      2  C13 SWF A 404     -13.068  23.264  61.093  0.00  0.00    +0.000 C 
ATOM      3  C15 SWF A 404     -13.710  22.085  61.462  0.00  0.00    +0.000 A 
ATOM      4  C16 SWF A 404     -14.619  22.056  62.535  0.00  0.00    +0.000 A 
ATOM      5  C17 SWF A 404     -15.242  20.865  62.884  0.00  0.00    +0.000 A 
ATOM      6  C18 SWF A 404     -14.968  19.698  62.178  0.00  0.00    +0.000 A 
ATOM      7  C19 SWF A 404     -14.072  19.723  61.119  0.00  0.00    +0.000 A 
ATOM      8  C20 SWF A 404     -13.442  20.931  60.768  0.00  0.00    +0.000 A 
ATOM      9  O21 SWF A 404     -12.545  20.974  59.717  0.00  0.00    +0.000 OA
ATOM     10  C22 SWF A 404     -12.290  22.178  59.132  0.00  0.00    +0.000 C 
ATOM     11  O23 SWF A 404     -12.047  22.207  57.970  0.00  0.00    +0.000 OA
ENDROOT
BRANCH   2  12
ATOM     12  O14 SWF A 404     -13.789  24.325  61.658  0.00  0.00    +0.000 OA
ATOM     13  H   SWF A 404     -13.174  25.014  61.952  0.00  0.00    +0.000 HD
ENDBRANCH   2  12
BRANCH   1  14
ATOM     14  C5  SWF A 404     -11.794  24.688  59.495  0.00  0.00    +0.000 C 
BRANCH  14  15
ATOM     15  C6  SWF A 404     -11.016  25.295  60.671  0.00  0.00    +0.000 A 
ATOM     16  C7  SWF A 404     -10.069  24.550  61.360  0.00  0.00    +0.000 A 
ATOM     17  C8  SWF A 404      -9.366  25.113  62.413  0.00  0.00    +0.000 A 
ATOM     18  C9  SWF A 404      -9.605  26.427  62.782  0.00  0.00    +0.000 A 
ATOM     19  C10 SWF A 404     -10.546  27.176  62.093  0.00  0.00    +0.000 A 
ATOM     20  C11 SWF A 404     -11.248  26.613  61.039  0.00  0.00    +0.000 A 
ENDBRANCH  14  15
BRANCH  14  21
ATOM     21  C4  SWF A 404     -12.911  25.610  58.993  0.00  0.00    +0.000 C 
BRANCH  21  23
ATOM     22  C1  SWF A 404     -14.043  25.750  56.612  0.00  0.00    +0.000 C 
ATOM     23  C2  SWF A 404     -13.724  24.970  57.873  0.00  0.00    +0.000 C 
ATOM     24  O3  SWF A 404     -14.119  23.858  57.988  0.00  0.00    +0.000 OA
ENDBRANCH  21  23
ENDBRANCH  14  21
ENDBRANCH   1  14
TORSDOF 5
ENDMDL
MODEL 2
REMARK VINA RESULT:    55.930      1.354      3.785
REMARK INTER + INTRA:          72.281
REMARK INTER:                  70.758
REMARK INTRA:                   1.524
REMARK UNBOUND:                 1.638
REMARK  Name = reference_warfarin_chainA.pdb
REMARK  6 active torsions:
REMARK  status: ('A' for Active; 'I' for Inactive)
REMARK    1  A    between atoms: C1_1  and  C2_2
REMARK    2  A    between atoms: C2_2  and  C4_4
REMARK    3  A    between atoms: C4_4  and  C5_5
REMARK    4  A    between atoms: C5_5  and  C6_6
REMARK    5  A    between atoms: C5_5  and  C12_12
REMARK    6  A    between atoms: C13_13  and  O14_14
REMARK                            x       y       z     vdW  Elec       q    Type
REMARK                         _______ _______ _______ _____ _____    ______ ____
ROOT
ATOM      1  C12 SWF A 404     -12.601  23.471  59.725  0.00  0.00    +0.000 C 
ATOM      2  C13 SWF A 404     -13.255  23.382  60.924  0.00  0.00    +0.000 C 
ATOM      3  C15 SWF A 404     -13.767  22.162  61.358  0.00  0.00    +0.000 A 
ATOM      4  C16 SWF A 404     -14.625  22.087  62.470  0.00  0.00    +0.000 A 
ATOM      5  C17 SWF A 404     -15.118  20.857  62.885  0.00  0.00    +0.000 A 
ATOM      6  C18 SWF A 404     -14.763  19.696  62.205  0.00  0.00    +0.000 A 
ATOM      7  C19 SWF A 404     -13.917  19.766  61.108  0.00  0.00    +0.000 A 
ATOM      8  C20 SWF A 404     -13.419  21.013  60.691  0.00  0.00    +0.000 A 
ATOM      9  O21 SWF A 404     -12.573  21.102  59.601  0.00  0.00    +0.000 OA
ATOM     10  C22 SWF A 404     -12.458  22.303  58.967  0.00  0.00    +0.000 C 
ATOM     11  O23 SWF A 404     -12.265  22.313  57.796  0.00  0.00    +0.000 OA
ENDROOT
BRANCH   2  12
ATOM     12  O14 SWF A 404     -14.051  24.390  61.485  0.00  0.00    +0.000 OA
ATOM     13  H   SWF A 404     -13.487  25.127  61.769  0.00  0.00    +0.000 HD
ENDBRANCH   2  12
BRANCH   1  14
ATOM     14  C5  SWF A 404     -12.187  24.860  59.227  0.00  0.00    +0.000 C 
BRANCH  14  15
ATOM     15  C6  SWF A 404     -13.110  25.265  58.069  0.00  0.00    +0.000 A 
ATOM     16  C7  SWF A 404     -13.930  24.332  57.450  0.00  0.00    +0.000 A 
ATOM     17  C8  SWF A 404     -14.766  24.712  56.414  0.00  0.00    +0.000 A 
ATOM     18  C9  SWF A 404     -14.791  26.032  55.990  0.00  0.00    +0.000 A 
ATOM     19  C10 SWF A 404     -13.978  26.969  56.610  0.00  0.00    +0.000 A 
ATOM     20  C11 SWF A 404     -13.141  26.587  57.647  0.00  0.00    +0.000 A 
ENDBRANCH  14  15
BRANCH  14  21
ATOM     21  C4  SWF A 404     -10.707  24.880  58.830  0.00  0.00    +0.000 C 
BRANCH  21  23
ATOM     22  C1  SWF A 404      -9.840  24.055  61.184  0.00  0.00    +0.000 C 
ATOM     23  C2  SWF A 404      -9.873  23.922  59.674  0.00  0.00    +0.000 C 
ATOM     24  O3  SWF A 404      -9.237  23.069  59.149  0.00  0.00    +0.000 OA
ENDBRANCH  21  23
ENDBRANCH  14  21
ENDBRANCH   1  14
TORSDOF 5
ENDMDL
