REMARK  Name = native_ligand.pdb
REMARK  14 active torsions:
REMARK  status: ('A' for Active; 'I' for Inactive)
REMARK    1  A    between atoms: C_2  and  C_16
REMARK    2  A    between atoms: C_2  and  C_17
REMARK    3  A    between atoms: C_3  and  C_17
REMARK    4  A    between atoms: C_4  and  O_29
REMARK    5  A    between atoms: C_5  and  C_6
REMARK    6  A    between atoms: C_5  and  C_19
REMARK    7  A    between atoms: C_5  and  O_29
REMARK    8  A    between atoms: C_9  and  C_16
REMARK    9  A    between atoms: C_10  and  C_11
REMARK   10  A    between atoms: C_10  and  C_15
REMARK   11  A    between atoms: C_10  and  N_23
REMARK   12  A    between atoms: C_11  and  C_12
REMARK   13  A    between atoms: C_16  and  N_25
REMARK   14  A    between atoms: C_17  and  C_18
REMARK                            x       y       z     vdW  Elec       q    Type
REMARK                         _______ _______ _______ _____ _____    ______ ____
ROOT
ATOM      1  C   UNK A   1      -0.728   5.457  -1.027  0.00  0.00    +0.000 C 
ENDROOT
BRANCH   1   3
ATOM      2  C   UNK A   0      -2.788   6.599  -0.099  0.00  0.00    +0.000 C 
ATOM      3  N   UNK A   1      -1.844   6.407  -1.077  0.00  0.00    +0.000 N 
ATOM      4  O   UNK A   0      -2.911   5.959   0.926  0.00  0.00    +0.000 OA
ATOM      5  H   UNK A   1      -1.821   7.141  -1.767  0.00  0.00    +0.000 HD
BRANCH   2   6
ATOM      6  O   UNK A   0      -3.627   7.586  -0.496  0.00  0.00    +0.000 OA
BRANCH   6   7
ATOM      7  C   UNK A   0      -4.851   7.770   0.258  0.00  0.00    +0.000 C 
ATOM      8  C   UNK A   0      -5.101   9.279   0.293  0.00  0.00    +0.000 C 
BRANCH   7   9
ATOM      9  C   UNK A   0      -6.028   7.082  -0.432  0.00  0.00    +0.000 A 
ATOM     10  C   UNK A   0      -7.105   6.294  -2.473  0.00  0.00    +0.000 A 
ATOM     11  C   UNK A   0      -8.330   6.279  -0.399  0.00  0.00    +0.000 A 
ATOM     12  C   UNK A   0      -5.995   6.818  -1.813  0.00  0.00    +0.000 A 
ATOM     13  C   UNK A   0      -8.282   6.044  -1.772  0.00  0.00    +0.000 A 
ATOM     14  C   UNK A   0      -7.205   6.779   0.271  0.00  0.00    +0.000 A 
ENDBRANCH   7   9
ENDBRANCH   6   7
ENDBRANCH   2   6
ENDBRANCH   1   3
BRANCH   1  15
ATOM     15  C   UNK A   1      -1.036   4.195  -0.179  0.00  0.00    +0.000 C 
ATOM     16  N   UNK A   1      -1.872   3.264  -0.764  0.00  0.00    +0.000 N 
ATOM     17  O   UNK A   1      -0.600   4.060   0.967  0.00  0.00    +0.000 OA
ATOM     18  H   UNK A   1      -2.014   3.275  -1.768  0.00  0.00    +0.000 HD
BRANCH  16  19
ATOM     19  C   UNK A   1      -2.299   2.075  -0.022  0.00  0.00    +0.000 C 
BRANCH  19  20
ATOM     20  C   UNK A   1      -1.578   0.829  -0.520  0.00  0.00    +0.000 C 
ATOM     21  O   UNK A   1      -1.322   0.613  -1.707  0.00  0.00    +0.000 OA
ENDBRANCH  19  20
BRANCH  19  22
ATOM     22  C   UNK A   1      -3.822   1.899  -0.126  0.00  0.00    +0.000 C 
BRANCH  22  24
ATOM     23  C   UNK A   1      -4.054   0.847   2.148  0.00  0.00    +0.000 C 
ATOM     24  C   UNK A   1      -4.365   0.704   0.671  0.00  0.00    +0.000 C 
ATOM     25  C   UNK A   1      -5.901   0.639   0.687  0.00  0.00    +0.000 C 
ATOM     26  C   UNK A   1      -6.297   1.449   1.909  0.00  0.00    +0.000 C 
ATOM     27  N   UNK A   1      -5.190   1.268   2.795  0.00  0.00    +0.000 N 
ATOM     28  O   UNK A   1      -2.966   0.668   2.660  0.00  0.00    +0.000 OA
ATOM     29  H   UNK A   1      -5.154   1.547   3.769  0.00  0.00    +0.000 HD
ENDBRANCH  22  24
ENDBRANCH  19  22
ENDBRANCH  16  19
ENDBRANCH   1  15
BRANCH   1  30
ATOM     30  C   UNK A   1       0.610   6.100  -0.594  0.00  0.00    +0.000 C 
BRANCH  30  32
ATOM     31  C   UNK A   1       2.414   7.858  -0.898  0.00  0.00    +0.000 C 
ATOM     32  C   UNK A   1       1.079   7.315  -1.430  0.00  0.00    +0.000 C 
ATOM     33  C   UNK A   1       1.223   7.008  -2.923  0.00  0.00    +0.000 C 
ENDBRANCH  30  32
ENDBRANCH   1  30
TORSDOF 11
