MODEL 1
REMARK VINA RESULT:    -6.014      0.000      0.000
REMARK INTER + INTRA:          -7.993
REMARK INTER:                  -7.596
REMARK INTRA:                  -0.397
REMARK UNBOUND:                -0.397
REMARK  Name = reference_warfarin.pdb
REMARK  6 active torsions:
REMARK  status: ('A' for Active; 'I' for Inactive)
REMARK    1  A    between atoms: C1_1  and  C2_2
REMARK    2  A    between atoms: C2_2  and  C4_4
REMARK    3  A    between atoms: C4_4  and  C5_5
REMARK    4  A    between atoms: C5_5  and  C6_6
REMARK    5  A    between atoms: C5_5  and  C12_12
REMARK    6  A    between atoms: C13_13  and  O14_14
REMARK                            x       y       z     vdW  Elec       q    Type
REMARK                         _______ _______ _______ _____ _____    ______ ____
ROOT
ATOM      1  C12 SWF A 404      32.473  14.237  73.276  0.00  0.00    +0.000 C 
ATOM      2  C13 SWF A 404      31.116  14.192  73.098  0.00  0.00    +0.000 C 
ATOM      3  C15 SWF A 404      30.567  14.377  71.832  0.00  0.00    +0.000 A 
ATOM      4  C16 SWF A 404      29.182  14.554  71.659  0.00  0.00    +0.000 A 
ATOM      5  C17 SWF A 404      28.660  14.731  70.384  0.00  0.00    +0.000 A 
ATOM      6  C18 SWF A 404      29.502  14.731  69.276  0.00  0.00    +0.000 A 
ATOM      7  C19 SWF A 404      30.868  14.557  69.444  0.00  0.00    +0.000 A 
ATOM      8  C20 SWF A 404      31.394  14.377  70.736  0.00  0.00    +0.000 A 
ATOM      9  O21 SWF A 404      32.753  14.200  70.922  0.00  0.00    +0.000 OA
ATOM     10  C22 SWF A 404      33.277  14.458  72.153  0.00  0.00    +0.000 C 
ATOM     11  O23 SWF A 404      34.383  14.883  72.223  0.00  0.00    +0.000 OA
ENDROOT
BRANCH   2  12
ATOM     12  O14 SWF A 404      30.166  14.628  74.031  0.00  0.00    +0.000 OA
ATOM     13  H   SWF A 404      29.635  15.341  73.643  0.00  0.00    +0.000 HD
ENDBRANCH   2  12
BRANCH   1  14
ATOM     14  C5  SWF A 404      33.017  14.174  74.708  0.00  0.00    +0.000 C 
BRANCH  14  15
ATOM     15  C6  SWF A 404      33.411  15.591  75.149  0.00  0.00    +0.000 A 
ATOM     16  C7  SWF A 404      32.451  16.500  75.568  0.00  0.00    +0.000 A 
ATOM     17  C8  SWF A 404      32.821  17.773  75.974  0.00  0.00    +0.000 A 
ATOM     18  C9  SWF A 404      34.156  18.143  75.965  0.00  0.00    +0.000 A 
ATOM     19  C10 SWF A 404      35.119  17.235  75.552  0.00  0.00    +0.000 A 
ATOM     20  C11 SWF A 404      34.749  15.963  75.147  0.00  0.00    +0.000 A 
ENDBRANCH  14  15
BRANCH  14  21
ATOM     21  C4  SWF A 404      34.183  13.184  74.808  0.00  0.00    +0.000 C 
BRANCH  21  23
ATOM     22  C1  SWF A 404      35.400  12.837  77.125  0.00  0.00    +0.000 C 
ATOM     23  C2  SWF A 404      34.258  12.521  76.179  0.00  0.00    +0.000 C 
ATOM     24  O3  SWF A 404      33.424  11.745  76.509  0.00  0.00    +0.000 OA
ENDBRANCH  21  23
ENDBRANCH  14  21
ENDBRANCH   1  14
TORSDOF 5
ENDMDL
MODEL 2
REMARK VINA RESULT:    -6.009      1.657      5.575
REMARK INTER + INTRA:          -7.988
REMARK INTER:                  -7.396
REMARK INTRA:                  -0.592
REMARK UNBOUND:                -0.397
REMARK  Name = reference_warfarin.pdb
REMARK  6 active torsions:
REMARK  status: ('A' for Active; 'I' for Inactive)
REMARK    1  A    between atoms: C1_1  and  C2_2
REMARK    2  A    between atoms: C2_2  and  C4_4
REMARK    3  A    between atoms: C4_4  and  C5_5
REMARK    4  A    between atoms: C5_5  and  C6_6
REMARK    5  A    between atoms: C5_5  and  C12_12
REMARK    6  A    between atoms: C13_13  and  O14_14
REMARK                            x       y       z     vdW  Elec       q    Type
REMARK                         _______ _______ _______ _____ _____    ______ ____
ROOT
ATOM      1  C12 SWF A 404      33.115  14.548  74.300  0.00  0.00    +0.000 C 
ATOM      2  C13 SWF A 404      34.261  15.271  74.494  0.00  0.00    +0.000 C 
ATOM      3  C15 SWF A 404      34.218  16.495  75.156  0.00  0.00    +0.000 A 
ATOM      4  C16 SWF A 404      35.334  17.352  75.175  0.00  0.00    +0.000 A 
ATOM      5  C17 SWF A 404      35.266  18.565  75.848  0.00  0.00    +0.000 A 
ATOM      6  C18 SWF A 404      34.097  18.935  76.507  0.00  0.00    +0.000 A 
ATOM      7  C19 SWF A 404      32.995  18.092  76.491  0.00  0.00    +0.000 A 
ATOM      8  C20 SWF A 404      33.068  16.864  75.809  0.00  0.00    +0.000 A 
ATOM      9  O21 SWF A 404      31.980  16.010  75.784  0.00  0.00    +0.000 OA
ATOM     10  C22 SWF A 404      31.916  15.072  74.798  0.00  0.00    +0.000 C 
ATOM     11  O23 SWF A 404      30.851  14.754  74.382  0.00  0.00    +0.000 OA
ENDROOT
BRANCH   2  12
ATOM     12  O14 SWF A 404      35.345  15.317  73.606  0.00  0.00    +0.000 OA
ATOM     13  H   SWF A 404      35.036  15.606  72.733  0.00  0.00    +0.000 HD
ENDBRANCH   2  12
BRANCH   1  14
ATOM     14  C5  SWF A 404      33.193  13.283  73.439  0.00  0.00    +0.000 C 
BRANCH  14  15
ATOM     15  C6  SWF A 404      32.396  13.513  72.148  0.00  0.00    +0.000 A 
ATOM     16  C7  SWF A 404      31.408  12.623  71.751  0.00  0.00    +0.000 A 
ATOM     17  C8  SWF A 404      30.687  12.848  70.590  0.00  0.00    +0.000 A 
ATOM     18  C9  SWF A 404      30.949  13.968  69.817  0.00  0.00    +0.000 A 
ATOM     19  C10 SWF A 404      31.931  14.863  70.213  0.00  0.00    +0.000 A 
ATOM     20  C11 SWF A 404      32.651  14.638  71.375  0.00  0.00    +0.000 A 
ENDBRANCH  14  15
BRANCH  14  21
ATOM     21  C4  SWF A 404      32.703  12.058  74.220  0.00  0.00    +0.000 C 
BRANCH  21  23
ATOM     22  C1  SWF A 404      32.764  11.817  76.849  0.00  0.00    +0.000 C 
ATOM     23  C2  SWF A 404      33.483  11.851  75.514  0.00  0.00    +0.000 C 
ATOM     24  O3  SWF A 404      34.662  11.725  75.482  0.00  0.00    +0.000 OA
ENDBRANCH  21  23
ENDBRANCH  14  21
ENDBRANCH   1  14
TORSDOF 5
ENDMDL
MODEL 3
REMARK VINA RESULT:    -5.946      3.806      6.540
REMARK INTER + INTRA:          -7.907
REMARK INTER:                  -7.336
REMARK INTRA:                  -0.571
REMARK UNBOUND:                -0.397
REMARK  Name = reference_warfarin.pdb
REMARK  6 active torsions:
REMARK  status: ('A' for Active; 'I' for Inactive)
REMARK    1  A    between atoms: C1_1  and  C2_2
REMARK    2  A    between atoms: C2_2  and  C4_4
REMARK    3  A    between atoms: C4_4  and  C5_5
REMARK    4  A    between atoms: C5_5  and  C6_6
REMARK    5  A    between atoms: C5_5  and  C12_12
REMARK    6  A    between atoms: C13_13  and  O14_14
REMARK                            x       y       z     vdW  Elec       q    Type
REMARK                         _______ _______ _______ _____ _____    ______ ____
ROOT
ATOM      1  C12 SWF A 404      27.093  13.789  72.264  0.00  0.00    +0.000 C 
ATOM      2  C13 SWF A 404      25.962  14.495  71.957  0.00  0.00    +0.000 C 
ATOM      3  C15 SWF A 404      24.812  13.834  71.534  0.00  0.00    +0.000 A 
ATOM      4  C16 SWF A 404      23.717  14.542  71.008  0.00  0.00    +0.000 A 
ATOM      5  C17 SWF A 404      22.580  13.858  70.598  0.00  0.00    +0.000 A 
ATOM      6  C18 SWF A 404      22.518  12.472  70.710  0.00  0.00    +0.000 A 
ATOM      7  C19 SWF A 404      23.597  11.770  71.229  0.00  0.00    +0.000 A 
ATOM      8  C20 SWF A 404      24.747  12.466  71.644  0.00  0.00    +0.000 A 
ATOM      9  O21 SWF A 404      25.830  11.784  72.165  0.00  0.00    +0.000 OA
ATOM     10  C22 SWF A 404      27.049  12.395  72.151  0.00  0.00    +0.000 C 
ATOM     11  O23 SWF A 404      28.020  11.726  72.019  0.00  0.00    +0.000 OA
ENDROOT
BRANCH   2  12
ATOM     12  O14 SWF A 404      25.940  15.774  71.383  0.00  0.00    +0.000 OA
ATOM     13  H   SWF A 404      25.347  15.774  70.615  0.00  0.00    +0.000 HD
ENDBRANCH   2  12
BRANCH   1  14
ATOM     14  C5  SWF A 404      28.372  14.572  72.581  0.00  0.00    +0.000 C 
BRANCH  14  15
ATOM     15  C6  SWF A 404      29.352  14.413  71.411  0.00  0.00    +0.000 A 
ATOM     16  C7  SWF A 404      30.556  13.741  71.575  0.00  0.00    +0.000 A 
ATOM     17  C8  SWF A 404      31.427  13.595  70.507  0.00  0.00    +0.000 A 
ATOM     18  C9  SWF A 404      31.099  14.118  69.267  0.00  0.00    +0.000 A 
ATOM     19  C10 SWF A 404      29.895  14.785  69.097  0.00  0.00    +0.000 A 
ATOM     20  C11 SWF A 404      29.024  14.930  70.165  0.00  0.00    +0.000 A 
ENDBRANCH  14  15
BRANCH  14  21
ATOM     21  C4  SWF A 404      28.975  14.118  73.916  0.00  0.00    +0.000 C 
BRANCH  21  23
ATOM     22  C1  SWF A 404      30.449  16.255  74.396  0.00  0.00    +0.000 C 
ATOM     23  C2  SWF A 404      29.348  15.298  74.808  0.00  0.00    +0.000 C 
ATOM     24  O3  SWF A 404      28.781  15.466  75.836  0.00  0.00    +0.000 OA
ENDBRANCH  21  23
ENDBRANCH  14  21
ENDBRANCH   1  14
TORSDOF 5
ENDMDL
MODEL 4
REMARK VINA RESULT:    -5.872      4.830      7.693
REMARK INTER + INTRA:          -7.814
REMARK INTER:                  -7.081
REMARK INTRA:                  -0.733
REMARK UNBOUND:                -0.397
REMARK  Name = reference_warfarin.pdb
REMARK  6 active torsions:
REMARK  status: ('A' for Active; 'I' for Inactive)
REMARK    1  A    between atoms: C1_1  and  C2_2
REMARK    2  A    between atoms: C2_2  and  C4_4
REMARK    3  A    between atoms: C4_4  and  C5_5
REMARK    4  A    between atoms: C5_5  and  C6_6
REMARK    5  A    between atoms: C5_5  and  C12_12
REMARK    6  A    between atoms: C13_13  and  O14_14
REMARK                            x       y       z     vdW  Elec       q    Type
REMARK                         _______ _______ _______ _____ _____    ______ ____
ROOT
ATOM      1  C12 SWF A 404      27.032  13.298  72.421  0.00  0.00    +0.000 C 
ATOM      2  C13 SWF A 404      27.422  14.187  71.455  0.00  0.00    +0.000 C 
ATOM      3  C15 SWF A 404      28.687  14.093  70.882  0.00  0.00    +0.000 A 
ATOM      4  C16 SWF A 404      29.189  15.115  70.056  0.00  0.00    +0.000 A 
ATOM      5  C17 SWF A 404      30.454  14.993  69.493  0.00  0.00    +0.000 A 
ATOM      6  C18 SWF A 404      31.225  13.862  69.741  0.00  0.00    +0.000 A 
ATOM      7  C19 SWF A 404      30.732  12.853  70.556  0.00  0.00    +0.000 A 
ATOM      8  C20 SWF A 404      29.452  12.978  71.124  0.00  0.00    +0.000 A 
ATOM      9  O21 SWF A 404      28.944  11.981  71.937  0.00  0.00    +0.000 OA
ATOM     10  C22 SWF A 404      27.935  12.298  72.797  0.00  0.00    +0.000 C 
ATOM     11  O23 SWF A 404      27.876  11.732  73.838  0.00  0.00    +0.000 OA
ENDROOT
BRANCH   2  12
ATOM     12  O14 SWF A 404      27.037  15.533  71.396  0.00  0.00    +0.000 OA
ATOM     13  H   SWF A 404      27.823  16.089  71.276  0.00  0.00    +0.000 HD
ENDBRANCH   2  12
BRANCH   1  14
ATOM     14  C5  SWF A 404      25.689  13.534  73.122  0.00  0.00    +0.000 C 
BRANCH  14  15
ATOM     15  C6  SWF A 404      24.574  13.530  72.066  0.00  0.00    +0.000 A 
ATOM     16  C7  SWF A 404      24.391  12.441  71.225  0.00  0.00    +0.000 A 
ATOM     17  C8  SWF A 404      23.374  12.446  70.285  0.00  0.00    +0.000 A 
ATOM     18  C9  SWF A 404      22.531  13.541  70.180  0.00  0.00    +0.000 A 
ATOM     19  C10 SWF A 404      22.706  14.628  71.022  0.00  0.00    +0.000 A 
ATOM     20  C11 SWF A 404      23.724  14.622  71.964  0.00  0.00    +0.000 A 
ENDBRANCH  14  15
BRANCH  14  21
ATOM     21  C4  SWF A 404      25.718  14.830  73.939  0.00  0.00    +0.000 C 
BRANCH  21  23
ATOM     22  C1  SWF A 404      27.962  15.644  75.068  0.00  0.00    +0.000 C 
ATOM     23  C2  SWF A 404      26.725  14.766  75.082  0.00  0.00    +0.000 C 
ATOM     24  O3  SWF A 404      26.549  14.020  75.987  0.00  0.00    +0.000 OA
ENDBRANCH  21  23
ENDBRANCH  14  21
ENDBRANCH   1  14
TORSDOF 5
ENDMDL
MODEL 5
REMARK VINA RESULT:    -5.824      1.766      5.101
REMARK INTER + INTRA:          -7.754
REMARK INTER:                  -7.184
REMARK INTRA:                  -0.570
REMARK UNBOUND:                -0.397
REMARK  Name = reference_warfarin.pdb
REMARK  6 active torsions:
REMARK  status: ('A' for Active; 'I' for Inactive)
REMARK    1  A    between atoms: C1_1  and  C2_2
REMARK    2  A    between atoms: C2_2  and  C4_4
REMARK    3  A    between atoms: C4_4  and  C5_5
REMARK    4  A    between atoms: C5_5  and  C6_6
REMARK    5  A    between atoms: C5_5  and  C12_12
REMARK    6  A    between atoms: C13_13  and  O14_14
REMARK                            x       y       z     vdW  Elec       q    Type
REMARK                         _______ _______ _______ _____ _____    ______ ____
ROOT
ATOM      1  C12 SWF A 404      33.466  14.791  74.133  0.00  0.00    +0.000 C 
ATOM      2  C13 SWF A 404      32.332  15.426  74.563  0.00  0.00    +0.000 C 
ATOM      3  C15 SWF A 404      32.422  16.592  75.319  0.00  0.00    +0.000 A 
ATOM      4  C16 SWF A 404      31.291  17.138  75.952  0.00  0.00    +0.000 A 
ATOM      5  C17 SWF A 404      31.408  18.304  76.696  0.00  0.00    +0.000 A 
ATOM      6  C18 SWF A 404      32.640  18.939  76.815  0.00  0.00    +0.000 A 
ATOM      7  C19 SWF A 404      33.758  18.403  76.192  0.00  0.00    +0.000 A 
ATOM      8  C20 SWF A 404      33.637  17.222  75.438  0.00  0.00    +0.000 A 
ATOM      9  O21 SWF A 404      34.739  16.675  74.808  0.00  0.00    +0.000 OA
ATOM     10  C22 SWF A 404      34.702  15.356  74.466  0.00  0.00    +0.000 C 
ATOM     11  O23 SWF A 404      35.712  14.733  74.489  0.00  0.00    +0.000 OA
ENDROOT
BRANCH   2  12
ATOM     12  O14 SWF A 404      31.138  14.788  74.924  0.00  0.00    +0.000 OA
ATOM     13  H   SWF A 404      31.177  14.535  75.859  0.00  0.00    +0.000 HD
ENDBRANCH   2  12
BRANCH   1  14
ATOM     14  C5  SWF A 404      33.316  13.437  73.432  0.00  0.00    +0.000 C 
BRANCH  14  15
ATOM     15  C6  SWF A 404      32.456  13.624  72.174  0.00  0.00    +0.000 A 
ATOM     16  C7  SWF A 404      32.599  14.750  71.374  0.00  0.00    +0.000 A 
ATOM     17  C8  SWF A 404      31.824  14.902  70.236  0.00  0.00    +0.000 A 
ATOM     18  C9  SWF A 404      30.903  13.927  69.888  0.00  0.00    +0.000 A 
ATOM     19  C10 SWF A 404      30.761  12.799  70.681  0.00  0.00    +0.000 A 
ATOM     20  C11 SWF A 404      31.537  12.647  71.820  0.00  0.00    +0.000 A 
ENDBRANCH  14  15
BRANCH  14  21
ATOM     21  C4  SWF A 404      32.735  12.387  74.387  0.00  0.00    +0.000 C 
BRANCH  21  23
ATOM     22  C1  SWF A 404      33.136  12.483  76.995  0.00  0.00    +0.000 C 
ATOM     23  C2  SWF A 404      33.631  12.156  75.599  0.00  0.00    +0.000 C 
ATOM     24  O3  SWF A 404      34.726  11.725  75.454  0.00  0.00    +0.000 OA
ENDBRANCH  21  23
ENDBRANCH  14  21
ENDBRANCH   1  14
TORSDOF 5
ENDMDL
MODEL 6
REMARK VINA RESULT:    -5.815      2.032      6.363
REMARK INTER + INTRA:          -7.741
REMARK INTER:                  -7.112
REMARK INTRA:                  -0.629
REMARK UNBOUND:                -0.397
REMARK  Name = reference_warfarin.pdb
REMARK  6 active torsions:
REMARK  status: ('A' for Active; 'I' for Inactive)
REMARK    1  A    between atoms: C1_1  and  C2_2
REMARK    2  A    between atoms: C2_2  and  C4_4
REMARK    3  A    between atoms: C4_4  and  C5_5
REMARK    4  A    between atoms: C5_5  and  C6_6
REMARK    5  A    between atoms: C5_5  and  C12_12
REMARK    6  A    between atoms: C13_13  and  O14_14
REMARK                            x       y       z     vdW  Elec       q    Type
REMARK                         _______ _______ _______ _____ _____    ______ ____
ROOT
ATOM      1  C12 SWF A 404      31.097  13.715  72.852  0.00  0.00    +0.000 C 
ATOM      2  C13 SWF A 404      32.181  14.462  73.226  0.00  0.00    +0.000 C 
ATOM      3  C15 SWF A 404      33.135  13.934  74.092  0.00  0.00    +0.000 A 
ATOM      4  C16 SWF A 404      34.131  14.747  74.661  0.00  0.00    +0.000 A 
ATOM      5  C17 SWF A 404      35.074  14.194  75.518  0.00  0.00    +0.000 A 
ATOM      6  C18 SWF A 404      35.037  12.835  75.814  0.00  0.00    +0.000 A 
ATOM      7  C19 SWF A 404      34.055  12.029  75.255  0.00  0.00    +0.000 A 
ATOM      8  C20 SWF A 404      33.103  12.593  74.387  0.00  0.00    +0.000 A 
ATOM      9  O21 SWF A 404      32.118  11.805  73.819  0.00  0.00    +0.000 OA
ATOM     10  C22 SWF A 404      30.990  12.413  73.355  0.00  0.00    +0.000 C 
ATOM     11  O23 SWF A 404      29.961  11.827  73.417  0.00  0.00    +0.000 OA
ENDROOT
BRANCH   2  12
ATOM     12  O14 SWF A 404      32.178  15.852  73.409  0.00  0.00    +0.000 OA
ATOM     13  H   SWF A 404      33.008  16.224  73.071  0.00  0.00    +0.000 HD
ENDBRANCH   2  12
BRANCH   1  14
ATOM     14  C5  SWF A 404      30.004  14.392  72.017  0.00  0.00    +0.000 C 
BRANCH  14  15
ATOM     15  C6  SWF A 404      28.754  14.569  72.889  0.00  0.00    +0.000 A 
ATOM     16  C7  SWF A 404      28.816  15.256  74.093  0.00  0.00    +0.000 A 
ATOM     17  C8  SWF A 404      27.678  15.418  74.867  0.00  0.00    +0.000 A 
ATOM     18  C9  SWF A 404      26.468  14.895  74.439  0.00  0.00    +0.000 A 
ATOM     19  C10 SWF A 404      26.400  14.212  73.234  0.00  0.00    +0.000 A 
ATOM     20  C11 SWF A 404      27.539  14.051  72.461  0.00  0.00    +0.000 A 
ENDBRANCH  14  15
BRANCH  14  21
ATOM     21  C4  SWF A 404      29.719  13.594  70.739  0.00  0.00    +0.000 C 
BRANCH  21  23
ATOM     22  C1  SWF A 404      29.008  15.158  68.733  0.00  0.00    +0.000 C 
ATOM     23  C2  SWF A 404      30.074  14.380  69.481  0.00  0.00    +0.000 C 
ATOM     24  O3  SWF A 404      31.188  14.378  69.075  0.00  0.00    +0.000 OA
ENDBRANCH  21  23
ENDBRANCH  14  21
ENDBRANCH   1  14
TORSDOF 5
ENDMDL
MODEL 7
REMARK VINA RESULT:    -5.808      2.360      4.880
REMARK INTER + INTRA:          -7.733
REMARK INTER:                  -7.055
REMARK INTRA:                  -0.677
REMARK UNBOUND:                -0.397
REMARK  Name = reference_warfarin.pdb
REMARK  6 active torsions:
REMARK  status: ('A' for Active; 'I' for Inactive)
REMARK    1  A    between atoms: C1_1  and  C2_2
REMARK    2  A    between atoms: C2_2  and  C4_4
REMARK    3  A    between atoms: C4_4  and  C5_5
REMARK    4  A    between atoms: C5_5  and  C6_6
REMARK    5  A    between atoms: C5_5  and  C12_12
REMARK    6  A    between atoms: C13_13  and  O14_14
REMARK                            x       y       z     vdW  Elec       q    Type
REMARK                         _______ _______ _______ _____ _____    ______ ____
ROOT
ATOM      1  C12 SWF A 404      30.622  13.801  72.670  0.00  0.00    +0.000 C 
ATOM      2  C13 SWF A 404      30.214  14.919  73.347  0.00  0.00    +0.000 C 
ATOM      3  C15 SWF A 404      28.919  15.003  73.850  0.00  0.00    +0.000 A 
ATOM      4  C16 SWF A 404      28.410  16.215  74.352  0.00  0.00    +0.000 A 
ATOM      5  C17 SWF A 404      27.116  16.270  74.853  0.00  0.00    +0.000 A 
ATOM      6  C18 SWF A 404      26.320  15.129  74.863  0.00  0.00    +0.000 A 
ATOM      7  C19 SWF A 404      26.818  13.932  74.369  0.00  0.00    +0.000 A 
ATOM      8  C20 SWF A 404      28.130  13.879  73.863  0.00  0.00    +0.000 A 
ATOM      9  O21 SWF A 404      28.644  12.695  73.369  0.00  0.00    +0.000 OA
ATOM     10  C22 SWF A 404      29.705  12.755  72.516  0.00  0.00    +0.000 C 
ATOM     11  O23 SWF A 404      29.797  11.935  71.662  0.00  0.00    +0.000 OA
ENDROOT
BRANCH   2  12
ATOM     12  O14 SWF A 404      30.641  16.226  73.076  0.00  0.00    +0.000 OA
ATOM     13  H   SWF A 404      30.310  16.500  72.205  0.00  0.00    +0.000 HD
ENDBRANCH   2  12
BRANCH   1  14
ATOM     14  C5  SWF A 404      32.005  13.818  72.011  0.00  0.00    +0.000 C 
BRANCH  14  15
ATOM     15  C6  SWF A 404      33.071  13.982  73.104  0.00  0.00    +0.000 A 
ATOM     16  C7  SWF A 404      33.919  15.081  73.114  0.00  0.00    +0.000 A 
ATOM     17  C8  SWF A 404      34.869  15.222  74.112  0.00  0.00    +0.000 A 
ATOM     18  C9  SWF A 404      34.977  14.265  75.109  0.00  0.00    +0.000 A 
ATOM     19  C10 SWF A 404      34.129  13.169  75.105  0.00  0.00    +0.000 A 
ATOM     20  C11 SWF A 404      33.177  13.028  74.106  0.00  0.00    +0.000 A 
ENDBRANCH  14  15
BRANCH  14  21
ATOM     21  C4  SWF A 404      32.089  14.914  70.942  0.00  0.00    +0.000 C 
BRANCH  21  23
ATOM     22  C1  SWF A 404      29.840  15.601  69.741  0.00  0.00    +0.000 C 
ATOM     23  C2  SWF A 404      31.066  14.712  69.830  0.00  0.00    +0.000 C 
ATOM     24  O3  SWF A 404      31.220  13.849  69.032  0.00  0.00    +0.000 OA
ENDBRANCH  21  23
ENDBRANCH  14  21
ENDBRANCH   1  14
TORSDOF 5
ENDMDL
MODEL 8
REMARK VINA RESULT:    -5.800      3.989      5.970
REMARK INTER + INTRA:          -7.723
REMARK INTER:                  -7.006
REMARK INTRA:                  -0.718
REMARK UNBOUND:                -0.397
REMARK  Name = reference_warfarin.pdb
REMARK  6 active torsions:
REMARK  status: ('A' for Active; 'I' for Inactive)
REMARK    1  A    between atoms: C1_1  and  C2_2
REMARK    2  A    between atoms: C2_2  and  C4_4
REMARK    3  A    between atoms: C4_4  and  C5_5
REMARK    4  A    between atoms: C5_5  and  C6_6
REMARK    5  A    between atoms: C5_5  and  C12_12
REMARK    6  A    between atoms: C13_13  and  O14_14
REMARK                            x       y       z     vdW  Elec       q    Type
REMARK                         _______ _______ _______ _____ _____    ______ ____
ROOT
ATOM      1  C12 SWF A 404      28.112  13.865  72.017  0.00  0.00    +0.000 C 
ATOM      2  C13 SWF A 404      26.943  14.572  71.932  0.00  0.00    +0.000 C 
ATOM      3  C15 SWF A 404      25.759  13.932  71.575  0.00  0.00    +0.000 A 
ATOM      4  C16 SWF A 404      24.599  14.667  71.269  0.00  0.00    +0.000 A 
ATOM      5  C17 SWF A 404      23.429  14.003  70.921  0.00  0.00    +0.000 A 
ATOM      6  C18 SWF A 404      23.399  12.613  70.878  0.00  0.00    +0.000 A 
ATOM      7  C19 SWF A 404      24.542  11.885  71.179  0.00  0.00    +0.000 A 
ATOM      8  C20 SWF A 404      25.725  12.560  71.531  0.00  0.00    +0.000 A 
ATOM      9  O21 SWF A 404      26.872  11.852  71.837  0.00  0.00    +0.000 OA
ATOM     10  C22 SWF A 404      28.072  12.493  71.749  0.00  0.00    +0.000 C 
ATOM     11  O23 SWF A 404      29.028  11.869  71.425  0.00  0.00    +0.000 OA
ENDROOT
BRANCH   2  12
ATOM     12  O14 SWF A 404      26.836  15.906  71.518  0.00  0.00    +0.000 OA
ATOM     13  H   SWF A 404      27.329  16.029  70.692  0.00  0.00    +0.000 HD
ENDBRANCH   2  12
BRANCH   1  14
ATOM     14  C5  SWF A 404      29.410  14.641  72.269  0.00  0.00    +0.000 C 
BRANCH  14  15
ATOM     15  C6  SWF A 404      29.368  15.227  73.687  0.00  0.00    +0.000 A 
ATOM     16  C7  SWF A 404      29.352  16.600  73.890  0.00  0.00    +0.000 A 
ATOM     17  C8  SWF A 404      29.302  17.117  75.175  0.00  0.00    +0.000 A 
ATOM     18  C9  SWF A 404      29.267  16.262  76.266  0.00  0.00    +0.000 A 
ATOM     19  C10 SWF A 404      29.277  14.891  76.066  0.00  0.00    +0.000 A 
ATOM     20  C11 SWF A 404      29.326  14.374  74.781  0.00  0.00    +0.000 A 
ENDBRANCH  14  15
BRANCH  14  21
ATOM     21  C4  SWF A 404      29.622  15.716  71.197  0.00  0.00    +0.000 C 
BRANCH  21  23
ATOM     22  C1  SWF A 404      28.948  15.107  68.717  0.00  0.00    +0.000 C 
ATOM     23  C2  SWF A 404      29.968  15.113  69.839  0.00  0.00    +0.000 C 
ATOM     24  O3  SWF A 404      31.039  14.636  69.658  0.00  0.00    +0.000 OA
ENDBRANCH  21  23
ENDBRANCH  14  21
ENDBRANCH   1  14
TORSDOF 5
ENDMDL
