MODEL 1
REMARK VINA RESULT:    -5.723      0.000      0.000
REMARK INTER + INTRA:          -7.731
REMARK INTER:                  -7.228
REMARK INTRA:                  -0.503
REMARK UNBOUND:                -0.503
REMARK  Name = reference_warfarin.pdb
REMARK  6 active torsions:
REMARK  status: ('A' for Active; 'I' for Inactive)
REMARK    1  A    between atoms: C1_1  and  C2_2
REMARK    2  A    between atoms: C2_2  and  C4_4
REMARK    3  A    between atoms: C4_4  and  C5_5
REMARK    4  A    between atoms: C5_5  and  C6_6
REMARK    5  A    between atoms: C5_5  and  C12_12
REMARK    6  A    between atoms: C13_13  and  O14_14
REMARK                            x       y       z     vdW  Elec       q    Type
REMARK                         _______ _______ _______ _____ _____    ______ ____
ROOT
ATOM      1  C12 SWF A 404      -2.091  33.972  50.578  0.00  0.00    +0.000 C 
ATOM      2  C13 SWF A 404      -3.391  34.229  50.235  0.00  0.00    +0.000 C 
ATOM      3  C15 SWF A 404      -3.684  35.060  49.157  0.00  0.00    +0.000 A 
ATOM      4  C16 SWF A 404      -4.995  35.512  48.922  0.00  0.00    +0.000 A 
ATOM      5  C17 SWF A 404      -5.260  36.337  47.836  0.00  0.00    +0.000 A 
ATOM      6  C18 SWF A 404      -4.233  36.714  46.976  0.00  0.00    +0.000 A 
ATOM      7  C19 SWF A 404      -2.939  36.270  47.205  0.00  0.00    +0.000 A 
ATOM      8  C20 SWF A 404      -2.673  35.435  48.306  0.00  0.00    +0.000 A 
ATOM      9  O21 SWF A 404      -1.390  34.981  48.549  0.00  0.00    +0.000 OA
ATOM     10  C22 SWF A 404      -1.080  34.557  49.807  0.00  0.00    +0.000 C 
ATOM     11  O23 SWF A 404       0.025  34.722  50.207  0.00  0.00    +0.000 OA
ENDROOT
BRANCH   2  12
ATOM     12  O14 SWF A 404      -4.458  34.329  51.139  0.00  0.00    +0.000 OA
ATOM     13  H   SWF A 404      -5.157  33.706  50.884  0.00  0.00    +0.000 HD
ENDBRANCH   2  12
BRANCH   1  14
ATOM     14  C5  SWF A 404      -1.824  33.173  51.858  0.00  0.00    +0.000 C 
BRANCH  14  15
ATOM     15  C6  SWF A 404      -1.326  34.134  52.946  0.00  0.00    +0.000 A 
ATOM     16  C7  SWF A 404      -2.034  35.286  53.259  0.00  0.00    +0.000 A 
ATOM     17  C8  SWF A 404      -1.579  36.140  54.250  0.00  0.00    +0.000 A 
ATOM     18  C9  SWF A 404      -0.412  35.846  54.938  0.00  0.00    +0.000 A 
ATOM     19  C10 SWF A 404       0.295  34.694  54.632  0.00  0.00    +0.000 A 
ATOM     20  C11 SWF A 404      -0.161  33.839  53.641  0.00  0.00    +0.000 A 
ENDBRANCH  14  15
BRANCH  14  21
ATOM     21  C4  SWF A 404      -0.840  32.027  51.593  0.00  0.00    +0.000 C 
BRANCH  21  23
ATOM     22  C1  SWF A 404      -0.847  29.387  51.613  0.00  0.00    +0.000 C 
ATOM     23  C2  SWF A 404      -1.554  30.702  51.347  0.00  0.00    +0.000 C 
ATOM     24  O3  SWF A 404      -2.667  30.695  50.939  0.00  0.00    +0.000 OA
ENDBRANCH  21  23
ENDBRANCH  14  21
ENDBRANCH   1  14
TORSDOF 5
ENDMDL
MODEL 2
REMARK VINA RESULT:    -5.513      1.955      3.959
REMARK INTER + INTRA:          -7.466
REMARK INTER:                  -7.570
REMARK INTRA:                   0.104
REMARK UNBOUND:                -0.503
REMARK  Name = reference_warfarin.pdb
REMARK  6 active torsions:
REMARK  status: ('A' for Active; 'I' for Inactive)
REMARK    1  A    between atoms: C1_1  and  C2_2
REMARK    2  A    between atoms: C2_2  and  C4_4
REMARK    3  A    between atoms: C4_4  and  C5_5
REMARK    4  A    between atoms: C5_5  and  C6_6
REMARK    5  A    between atoms: C5_5  and  C12_12
REMARK    6  A    between atoms: C13_13  and  O14_14
REMARK                            x       y       z     vdW  Elec       q    Type
REMARK                         _______ _______ _______ _____ _____    ______ ____
ROOT
ATOM      1  C12 SWF A 404      -2.352  33.307  48.867  0.00  0.00    +0.000 C 
ATOM      2  C13 SWF A 404      -3.537  33.962  49.067  0.00  0.00    +0.000 C 
ATOM      3  C15 SWF A 404      -4.447  34.105  48.024  0.00  0.00    +0.000 A 
ATOM      4  C16 SWF A 404      -5.562  34.956  48.142  0.00  0.00    +0.000 A 
ATOM      5  C17 SWF A 404      -6.457  35.076  47.087  0.00  0.00    +0.000 A 
ATOM      6  C18 SWF A 404      -6.258  34.355  45.914  0.00  0.00    +0.000 A 
ATOM      7  C19 SWF A 404      -5.160  33.516  45.794  0.00  0.00    +0.000 A 
ATOM      8  C20 SWF A 404      -4.255  33.395  46.864  0.00  0.00    +0.000 A 
ATOM      9  O21 SWF A 404      -3.156  32.562  46.763  0.00  0.00    +0.000 OA
ATOM     10  C22 SWF A 404      -2.099  32.781  47.595  0.00  0.00    +0.000 C 
ATOM     11  O23 SWF A 404      -1.005  32.542  47.200  0.00  0.00    +0.000 OA
ENDROOT
BRANCH   2  12
ATOM     12  O14 SWF A 404      -3.720  35.051  49.931  0.00  0.00    +0.000 OA
ATOM     13  H   SWF A 404      -3.760  35.871  49.414  0.00  0.00    +0.000 HD
ENDBRANCH   2  12
BRANCH   1  14
ATOM     14  C5  SWF A 404      -1.324  33.305  50.004  0.00  0.00    +0.000 C 
BRANCH  14  15
ATOM     15  C6  SWF A 404      -1.104  31.858  50.468  0.00  0.00    +0.000 A 
ATOM     16  C7  SWF A 404      -2.087  31.177  51.172  0.00  0.00    +0.000 A 
ATOM     17  C8  SWF A 404      -1.880  29.868  51.576  0.00  0.00    +0.000 A 
ATOM     18  C9  SWF A 404      -0.688  29.230  51.275  0.00  0.00    +0.000 A 
ATOM     19  C10 SWF A 404       0.295  29.904  50.567  0.00  0.00    +0.000 A 
ATOM     20  C11 SWF A 404       0.087  31.214  50.163  0.00  0.00    +0.000 A 
ENDBRANCH  14  15
BRANCH  14  21
ATOM     21  C4  SWF A 404      -1.770  34.225  51.146  0.00  0.00    +0.000 C 
BRANCH  21  23
ATOM     22  C1  SWF A 404      -0.271  33.757  53.269  0.00  0.00    +0.000 C 
ATOM     23  C2  SWF A 404      -0.611  34.608  52.061  0.00  0.00    +0.000 C 
ATOM     24  O3  SWF A 404       0.026  35.582  51.834  0.00  0.00    +0.000 OA
ENDBRANCH  21  23
ENDBRANCH  14  21
ENDBRANCH   1  14
TORSDOF 5
ENDMDL
MODEL 3
REMARK VINA RESULT:    -5.340      1.824      2.488
REMARK INTER + INTRA:          -7.248
REMARK INTER:                  -7.633
REMARK INTRA:                   0.386
REMARK UNBOUND:                -0.503
REMARK  Name = reference_warfarin.pdb
REMARK  6 active torsions:
REMARK  status: ('A' for Active; 'I' for Inactive)
REMARK    1  A    between atoms: C1_1  and  C2_2
REMARK    2  A    between atoms: C2_2  and  C4_4
REMARK    3  A    between atoms: C4_4  and  C5_5
REMARK    4  A    between atoms: C5_5  and  C6_6
REMARK    5  A    between atoms: C5_5  and  C12_12
REMARK    6  A    between atoms: C13_13  and  O14_14
REMARK                            x       y       z     vdW  Elec       q    Type
REMARK                         _______ _______ _______ _____ _____    ______ ____
ROOT
ATOM      1  C12 SWF A 404      -2.830  33.669  50.175  0.00  0.00    +0.000 C 
ATOM      2  C13 SWF A 404      -2.901  33.261  48.870  0.00  0.00    +0.000 C 
ATOM      3  C15 SWF A 404      -3.947  33.687  48.055  0.00  0.00    +0.000 A 
ATOM      4  C16 SWF A 404      -4.163  33.114  46.789  0.00  0.00    +0.000 A 
ATOM      5  C17 SWF A 404      -5.211  33.561  45.994  0.00  0.00    +0.000 A 
ATOM      6  C18 SWF A 404      -6.047  34.578  46.446  0.00  0.00    +0.000 A 
ATOM      7  C19 SWF A 404      -5.837  35.145  47.695  0.00  0.00    +0.000 A 
ATOM      8  C20 SWF A 404      -4.775  34.690  48.496  0.00  0.00    +0.000 A 
ATOM      9  O21 SWF A 404      -4.549  35.245  49.743  0.00  0.00    +0.000 OA
ATOM     10  C22 SWF A 404      -3.827  34.528  50.650  0.00  0.00    +0.000 C 
ATOM     11  O23 SWF A 404      -4.087  34.642  51.802  0.00  0.00    +0.000 OA
ENDROOT
BRANCH   2  12
ATOM     12  O14 SWF A 404      -2.484  32.011  48.392  0.00  0.00    +0.000 OA
ATOM     13  H   SWF A 404      -2.040  32.124  47.537  0.00  0.00    +0.000 HD
ENDBRANCH   2  12
BRANCH   1  14
ATOM     14  C5  SWF A 404      -1.744  33.057  51.067  0.00  0.00    +0.000 C 
BRANCH  14  15
ATOM     15  C6  SWF A 404      -1.096  34.175  51.895  0.00  0.00    +0.000 A 
ATOM     16  C7  SWF A 404      -0.566  35.301  51.280  0.00  0.00    +0.000 A 
ATOM     17  C8  SWF A 404       0.007  36.309  52.040  0.00  0.00    +0.000 A 
ATOM     18  C9  SWF A 404       0.050  36.197  53.421  0.00  0.00    +0.000 A 
ATOM     19  C10 SWF A 404      -0.483  35.077  54.038  0.00  0.00    +0.000 A 
ATOM     20  C11 SWF A 404      -1.056  34.069  53.278  0.00  0.00    +0.000 A 
ENDBRANCH  14  15
BRANCH  14  21
ATOM     21  C4  SWF A 404      -0.722  32.280  50.229  0.00  0.00    +0.000 C 
BRANCH  21  23
ATOM     22  C1  SWF A 404      -1.775  30.174  51.423  0.00  0.00    +0.000 C 
ATOM     23  C2  SWF A 404      -0.652  30.809  50.627  0.00  0.00    +0.000 C 
ATOM     24  O3  SWF A 404       0.289  30.156  50.321  0.00  0.00    +0.000 OA
ENDBRANCH  21  23
ENDBRANCH  14  21
ENDBRANCH   1  14
TORSDOF 5
ENDMDL
MODEL 4
REMARK VINA RESULT:    -4.833      2.125      6.113
REMARK INTER + INTRA:          -6.607
REMARK INTER:                  -6.559
REMARK INTRA:                  -0.049
REMARK UNBOUND:                -0.503
REMARK  Name = reference_warfarin.pdb
REMARK  6 active torsions:
REMARK  status: ('A' for Active; 'I' for Inactive)
REMARK    1  A    between atoms: C1_1  and  C2_2
REMARK    2  A    between atoms: C2_2  and  C4_4
REMARK    3  A    between atoms: C4_4  and  C5_5
REMARK    4  A    between atoms: C5_5  and  C6_6
REMARK    5  A    between atoms: C5_5  and  C12_12
REMARK    6  A    between atoms: C13_13  and  O14_14
REMARK                            x       y       z     vdW  Elec       q    Type
REMARK                         _______ _______ _______ _____ _____    ______ ____
ROOT
ATOM      1  C12 SWF A 404      -3.066  34.014  49.849  0.00  0.00    +0.000 C 
ATOM      2  C13 SWF A 404      -2.081  33.281  50.456  0.00  0.00    +0.000 C 
ATOM      3  C15 SWF A 404      -1.653  33.605  51.740  0.00  0.00    +0.000 A 
ATOM      4  C16 SWF A 404      -0.504  33.013  52.295  0.00  0.00    +0.000 A 
ATOM      5  C17 SWF A 404      -0.102  33.350  53.582  0.00  0.00    +0.000 A 
ATOM      6  C18 SWF A 404      -0.835  34.269  54.326  0.00  0.00    +0.000 A 
ATOM      7  C19 SWF A 404      -1.969  34.855  53.781  0.00  0.00    +0.000 A 
ATOM      8  C20 SWF A 404      -2.374  34.511  52.479  0.00  0.00    +0.000 A 
ATOM      9  O21 SWF A 404      -3.502  35.083  51.921  0.00  0.00    +0.000 OA
ATOM     10  C22 SWF A 404      -3.628  35.078  50.563  0.00  0.00    +0.000 C 
ATOM     11  O23 SWF A 404      -4.185  35.985  50.040  0.00  0.00    +0.000 OA
ENDROOT
BRANCH   2  12
ATOM     12  O14 SWF A 404      -0.999  32.683  49.796  0.00  0.00    +0.000 OA
ATOM     13  H   SWF A 404      -1.310  31.906  49.304  0.00  0.00    +0.000 HD
ENDBRANCH   2  12
BRANCH   1  14
ATOM     14  C5  SWF A 404      -3.396  33.710  48.384  0.00  0.00    +0.000 C 
BRANCH  14  15
ATOM     15  C6  SWF A 404      -2.272  34.266  47.498  0.00  0.00    +0.000 A 
ATOM     16  C7  SWF A 404      -1.906  35.603  47.566  0.00  0.00    +0.000 A 
ATOM     17  C8  SWF A 404      -0.883  36.090  46.769  0.00  0.00    +0.000 A 
ATOM     18  C9  SWF A 404      -0.216  35.241  45.900  0.00  0.00    +0.000 A 
ATOM     19  C10 SWF A 404      -0.575  33.904  45.833  0.00  0.00    +0.000 A 
ATOM     20  C11 SWF A 404      -1.599  33.417  46.631  0.00  0.00    +0.000 A 
ENDBRANCH  14  15
BRANCH  14  21
ATOM     21  C4  SWF A 404      -4.772  34.271  48.005  0.00  0.00    +0.000 C 
BRANCH  21  23
ATOM     22  C1  SWF A 404      -5.909  34.522  45.635  0.00  0.00    +0.000 C 
ATOM     23  C2  SWF A 404      -5.312  33.648  46.722  0.00  0.00    +0.000 C 
ATOM     24  O3  SWF A 404      -5.275  32.473  46.571  0.00  0.00    +0.000 OA
ENDBRANCH  21  23
ENDBRANCH  14  21
ENDBRANCH   1  14
TORSDOF 5
ENDMDL
MODEL 5
REMARK VINA RESULT:    -4.725      1.724      5.305
REMARK INTER + INTRA:          -6.471
REMARK INTER:                  -6.059
REMARK INTRA:                  -0.411
REMARK UNBOUND:                -0.503
REMARK  Name = reference_warfarin.pdb
REMARK  6 active torsions:
REMARK  status: ('A' for Active; 'I' for Inactive)
REMARK    1  A    between atoms: C1_1  and  C2_2
REMARK    2  A    between atoms: C2_2  and  C4_4
REMARK    3  A    between atoms: C4_4  and  C5_5
REMARK    4  A    between atoms: C5_5  and  C6_6
REMARK    5  A    between atoms: C5_5  and  C12_12
REMARK    6  A    between atoms: C13_13  and  O14_14
REMARK                            x       y       z     vdW  Elec       q    Type
REMARK                         _______ _______ _______ _____ _____    ______ ____
ROOT
ATOM      1  C12 SWF A 404      -1.638  34.694  49.748  0.00  0.00    +0.000 C 
ATOM      2  C13 SWF A 404      -2.268  34.392  50.925  0.00  0.00    +0.000 C 
ATOM      3  C15 SWF A 404      -1.810  34.928  52.126  0.00  0.00    +0.000 A 
ATOM      4  C16 SWF A 404      -2.296  34.465  53.361  0.00  0.00    +0.000 A 
ATOM      5  C17 SWF A 404      -1.825  35.021  54.544  0.00  0.00    +0.000 A 
ATOM      6  C18 SWF A 404      -0.875  36.037  54.511  0.00  0.00    +0.000 A 
ATOM      7  C19 SWF A 404      -0.393  36.495  53.294  0.00  0.00    +0.000 A 
ATOM      8  C20 SWF A 404      -0.872  35.931  52.098  0.00  0.00    +0.000 A 
ATOM      9  O21 SWF A 404      -0.404  36.376  50.875  0.00  0.00    +0.000 OA
ATOM     10  C22 SWF A 404      -0.539  35.559  49.793  0.00  0.00    +0.000 C 
ATOM     11  O23 SWF A 404       0.290  35.595  48.945  0.00  0.00    +0.000 OA
ENDROOT
BRANCH   2  12
ATOM     12  O14 SWF A 404      -2.876  33.165  51.223  0.00  0.00    +0.000 OA
ATOM     13  H   SWF A 404      -2.672  32.917  52.138  0.00  0.00    +0.000 HD
ENDBRANCH   2  12
BRANCH   1  14
ATOM     14  C5  SWF A 404      -2.090  33.965  48.477  0.00  0.00    +0.000 C 
BRANCH  14  15
ATOM     15  C6  SWF A 404      -3.525  34.396  48.144  0.00  0.00    +0.000 A 
ATOM     16  C7  SWF A 404      -4.021  35.618  48.576  0.00  0.00    +0.000 A 
ATOM     17  C8  SWF A 404      -5.314  36.000  48.260  0.00  0.00    +0.000 A 
ATOM     18  C9  SWF A 404      -6.121  35.163  47.505  0.00  0.00    +0.000 A 
ATOM     19  C10 SWF A 404      -5.627  33.944  47.067  0.00  0.00    +0.000 A 
ATOM     20  C11 SWF A 404      -4.333  33.562  47.384  0.00  0.00    +0.000 A 
ENDBRANCH  14  15
BRANCH  14  21
ATOM     21  C4  SWF A 404      -1.958  32.446  48.642  0.00  0.00    +0.000 C 
BRANCH  21  23
ATOM     22  C1  SWF A 404      -0.084  31.333  50.132  0.00  0.00    +0.000 C 
ATOM     23  C2  SWF A 404      -0.509  32.014  48.846  0.00  0.00    +0.000 C 
ATOM     24  O3  SWF A 404       0.295  32.218  47.999  0.00  0.00    +0.000 OA
ENDBRANCH  21  23
ENDBRANCH  14  21
ENDBRANCH   1  14
TORSDOF 5
ENDMDL
MODEL 6
REMARK VINA RESULT:    -4.712      1.795      5.913
REMARK INTER + INTRA:          -6.455
REMARK INTER:                  -5.777
REMARK INTRA:                  -0.678
REMARK UNBOUND:                -0.503
REMARK  Name = reference_warfarin.pdb
REMARK  6 active torsions:
REMARK  status: ('A' for Active; 'I' for Inactive)
REMARK    1  A    between atoms: C1_1  and  C2_2
REMARK    2  A    between atoms: C2_2  and  C4_4
REMARK    3  A    between atoms: C4_4  and  C5_5
REMARK    4  A    between atoms: C5_5  and  C6_6
REMARK    5  A    between atoms: C5_5  and  C12_12
REMARK    6  A    between atoms: C13_13  and  O14_14
REMARK                            x       y       z     vdW  Elec       q    Type
REMARK                         _______ _______ _______ _____ _____    ______ ____
ROOT
ATOM      1  C12 SWF A 404      -2.307  34.463  50.263  0.00  0.00    +0.000 C 
ATOM      2  C13 SWF A 404      -2.474  33.337  51.024  0.00  0.00    +0.000 C 
ATOM      3  C15 SWF A 404      -1.667  32.222  50.818  0.00  0.00    +0.000 A 
ATOM      4  C16 SWF A 404      -1.959  30.989  51.429  0.00  0.00    +0.000 A 
ATOM      5  C17 SWF A 404      -1.134  29.893  51.210  0.00  0.00    +0.000 A 
ATOM      6  C18 SWF A 404      -0.016  30.011  50.390  0.00  0.00    +0.000 A 
ATOM      7  C19 SWF A 404       0.275  31.226  49.786  0.00  0.00    +0.000 A 
ATOM      8  C20 SWF A 404      -0.562  32.334  50.010  0.00  0.00    +0.000 A 
ATOM      9  O21 SWF A 404      -0.286  33.552  49.418  0.00  0.00    +0.000 OA
ATOM     10  C22 SWF A 404      -1.299  34.456  49.292  0.00  0.00    +0.000 C 
ATOM     11  O23 SWF A 404      -1.301  35.182  48.354  0.00  0.00    +0.000 OA
ENDROOT
BRANCH   2  12
ATOM     12  O14 SWF A 404      -3.700  32.876  51.523  0.00  0.00    +0.000 OA
ATOM     13  H   SWF A 404      -3.961  33.415  52.287  0.00  0.00    +0.000 HD
ENDBRANCH   2  12
BRANCH   1  14
ATOM     14  C5  SWF A 404      -3.314  35.606  50.430  0.00  0.00    +0.000 C 
BRANCH  14  15
ATOM     15  C6  SWF A 404      -4.180  35.690  49.165  0.00  0.00    +0.000 A 
ATOM     16  C7  SWF A 404      -4.984  34.626  48.779  0.00  0.00    +0.000 A 
ATOM     17  C8  SWF A 404      -5.769  34.718  47.641  0.00  0.00    +0.000 A 
ATOM     18  C9  SWF A 404      -5.756  35.878  46.882  0.00  0.00    +0.000 A 
ATOM     19  C10 SWF A 404      -4.959  36.944  47.267  0.00  0.00    +0.000 A 
ATOM     20  C11 SWF A 404      -4.174  36.851  48.406  0.00  0.00    +0.000 A 
ENDBRANCH  14  15
BRANCH  14  21
ATOM     21  C4  SWF A 404      -2.598  36.926  50.738  0.00  0.00    +0.000 C 
BRANCH  21  23
ATOM     22  C1  SWF A 404      -2.767  36.861  53.372  0.00  0.00    +0.000 C 
ATOM     23  C2  SWF A 404      -1.930  36.910  52.109  0.00  0.00    +0.000 C 
ATOM     24  O3  SWF A 404      -0.747  36.945  52.192  0.00  0.00    +0.000 OA
ENDBRANCH  21  23
ENDBRANCH  14  21
ENDBRANCH   1  14
TORSDOF 5
ENDMDL
MODEL 7
REMARK VINA RESULT:    -4.593      2.137      5.899
REMARK INTER + INTRA:          -6.304
REMARK INTER:                  -5.698
REMARK INTRA:                  -0.606
REMARK UNBOUND:                -0.503
REMARK  Name = reference_warfarin.pdb
REMARK  6 active torsions:
REMARK  status: ('A' for Active; 'I' for Inactive)
REMARK    1  A    between atoms: C1_1  and  C2_2
REMARK    2  A    between atoms: C2_2  and  C4_4
REMARK    3  A    between atoms: C4_4  and  C5_5
REMARK    4  A    between atoms: C5_5  and  C6_6
REMARK    5  A    between atoms: C5_5  and  C12_12
REMARK    6  A    between atoms: C13_13  and  O14_14
REMARK                            x       y       z     vdW  Elec       q    Type
REMARK                         _______ _______ _______ _____ _____    ______ ____
ROOT
ATOM      1  C12 SWF A 404      -1.252  33.744  49.956  0.00  0.00    +0.000 C 
ATOM      2  C13 SWF A 404      -0.563  34.805  50.479  0.00  0.00    +0.000 C 
ATOM      3  C15 SWF A 404      -0.389  34.922  51.855  0.00  0.00    +0.000 A 
ATOM      4  C16 SWF A 404       0.119  36.103  52.427  0.00  0.00    +0.000 A 
ATOM      5  C17 SWF A 404       0.287  36.191  53.803  0.00  0.00    +0.000 A 
ATOM      6  C18 SWF A 404      -0.041  35.112  54.619  0.00  0.00    +0.000 A 
ATOM      7  C19 SWF A 404      -0.542  33.946  54.058  0.00  0.00    +0.000 A 
ATOM      8  C20 SWF A 404      -0.711  33.860  52.664  0.00  0.00    +0.000 A 
ATOM      9  O21 SWF A 404      -1.207  32.705  52.088  0.00  0.00    +0.000 OA
ATOM     10  C22 SWF A 404      -1.757  32.787  50.843  0.00  0.00    +0.000 C 
ATOM     11  O23 SWF A 404      -2.656  32.063  50.569  0.00  0.00    +0.000 OA
ENDROOT
BRANCH   2  12
ATOM     12  O14 SWF A 404      -0.555  36.102  49.947  0.00  0.00    +0.000 OA
ATOM     13  H   SWF A 404       0.142  36.623  50.376  0.00  0.00    +0.000 HD
ENDBRANCH   2  12
BRANCH   1  14
ATOM     14  C5  SWF A 404      -1.542  33.739  48.451  0.00  0.00    +0.000 C 
BRANCH  14  15
ATOM     15  C6  SWF A 404      -3.026  34.062  48.232  0.00  0.00    +0.000 A 
ATOM     16  C7  SWF A 404      -3.622  35.144  48.866  0.00  0.00    +0.000 A 
ATOM     17  C8  SWF A 404      -4.960  35.431  48.652  0.00  0.00    +0.000 A 
ATOM     18  C9  SWF A 404      -5.712  34.639  47.800  0.00  0.00    +0.000 A 
ATOM     19  C10 SWF A 404      -5.120  33.561  47.160  0.00  0.00    +0.000 A 
ATOM     20  C11 SWF A 404      -3.781  33.274  47.374  0.00  0.00    +0.000 A 
ENDBRANCH  14  15
BRANCH  14  21
ATOM     21  C4  SWF A 404      -1.134  32.403  47.819  0.00  0.00    +0.000 C 
BRANCH  21  23
ATOM     22  C1  SWF A 404       0.188  33.984  46.168  0.00  0.00    +0.000 C 
ATOM     23  C2  SWF A 404      -0.189  32.592  46.637  0.00  0.00    +0.000 C 
ATOM     24  O3  SWF A 404       0.249  31.646  46.071  0.00  0.00    +0.000 OA
ENDBRANCH  21  23
ENDBRANCH  14  21
ENDBRANCH   1  14
TORSDOF 5
ENDMDL
MODEL 8
REMARK VINA RESULT:    -3.570      1.492      5.581
REMARK INTER + INTRA:          -5.012
REMARK INTER:                  -4.536
REMARK INTRA:                  -0.476
REMARK UNBOUND:                -0.503
REMARK  Name = reference_warfarin.pdb
REMARK  6 active torsions:
REMARK  status: ('A' for Active; 'I' for Inactive)
REMARK    1  A    between atoms: C1_1  and  C2_2
REMARK    2  A    between atoms: C2_2  and  C4_4
REMARK    3  A    between atoms: C4_4  and  C5_5
REMARK    4  A    between atoms: C5_5  and  C6_6
REMARK    5  A    between atoms: C5_5  and  C12_12
REMARK    6  A    between atoms: C13_13  and  O14_14
REMARK                            x       y       z     vdW  Elec       q    Type
REMARK                         _______ _______ _______ _____ _____    ______ ____
ROOT
ATOM      1  C12 SWF A 404      -2.201  34.392  50.591  0.00  0.00    +0.000 C 
ATOM      2  C13 SWF A 404      -1.054  35.049  50.948  0.00  0.00    +0.000 C 
ATOM      3  C15 SWF A 404      -0.901  35.546  52.239  0.00  0.00    +0.000 A 
ATOM      4  C16 SWF A 404       0.162  36.408  52.565  0.00  0.00    +0.000 A 
ATOM      5  C17 SWF A 404       0.295  36.886  53.863  0.00  0.00    +0.000 A 
ATOM      6  C18 SWF A 404      -0.619  36.512  54.843  0.00  0.00    +0.000 A 
ATOM      7  C19 SWF A 404      -1.668  35.662  54.525  0.00  0.00    +0.000 A 
ATOM      8  C20 SWF A 404      -1.800  35.179  53.210  0.00  0.00    +0.000 A 
ATOM      9  O21 SWF A 404      -2.838  34.330  52.875  0.00  0.00    +0.000 OA
ATOM     10  C22 SWF A 404      -3.194  34.228  51.563  0.00  0.00    +0.000 C 
ATOM     11  O23 SWF A 404      -4.334  34.031  51.297  0.00  0.00    +0.000 OA
ENDROOT
BRANCH   2  12
ATOM     12  O14 SWF A 404      -0.293  35.861  50.096  0.00  0.00    +0.000 OA
ATOM     13  H   SWF A 404       0.078  36.602  50.601  0.00  0.00    +0.000 HD
ENDBRANCH   2  12
BRANCH   1  14
ATOM     14  C5  SWF A 404      -2.381  33.994  49.122  0.00  0.00    +0.000 C 
BRANCH  14  15
ATOM     15  C6  SWF A 404      -3.569  34.774  48.541  0.00  0.00    +0.000 A 
ATOM     16  C7  SWF A 404      -4.629  34.113  47.937  0.00  0.00    +0.000 A 
ATOM     17  C8  SWF A 404      -5.701  34.828  47.427  0.00  0.00    +0.000 A 
ATOM     18  C9  SWF A 404      -5.720  36.210  47.520  0.00  0.00    +0.000 A 
ATOM     19  C10 SWF A 404      -4.666  36.874  48.127  0.00  0.00    +0.000 A 
ATOM     20  C11 SWF A 404      -3.594  36.158  48.638  0.00  0.00    +0.000 A 
ENDBRANCH  14  15
BRANCH  14  21
ATOM     21  C4  SWF A 404      -2.552  32.477  48.982  0.00  0.00    +0.000 C 
BRANCH  21  23
ATOM     22  C1  SWF A 404      -1.874  30.875  50.968  0.00  0.00    +0.000 C 
ATOM     23  C2  SWF A 404      -1.490  31.706  49.759  0.00  0.00    +0.000 C 
ATOM     24  O3  SWF A 404      -0.354  31.760  49.424  0.00  0.00    +0.000 OA
ENDBRANCH  21  23
ENDBRANCH  14  21
ENDBRANCH   1  14
TORSDOF 5
ENDMDL
MODEL 9
REMARK VINA RESULT:    -3.420      1.730      4.073
REMARK INTER + INTRA:          -4.822
REMARK INTER:                  -4.937
REMARK INTRA:                   0.115
REMARK UNBOUND:                -0.503
REMARK  Name = reference_warfarin.pdb
REMARK  6 active torsions:
REMARK  status: ('A' for Active; 'I' for Inactive)
REMARK    1  A    between atoms: C1_1  and  C2_2
REMARK    2  A    between atoms: C2_2  and  C4_4
REMARK    3  A    between atoms: C4_4  and  C5_5
REMARK    4  A    between atoms: C5_5  and  C6_6
REMARK    5  A    between atoms: C5_5  and  C12_12
REMARK    6  A    between atoms: C13_13  and  O14_14
REMARK                            x       y       z     vdW  Elec       q    Type
REMARK                         _______ _______ _______ _____ _____    ______ ____
ROOT
ATOM      1  C12 SWF A 404      -2.762  34.218  49.903  0.00  0.00    +0.000 C 
ATOM      2  C13 SWF A 404      -2.679  33.933  48.567  0.00  0.00    +0.000 C 
ATOM      3  C15 SWF A 404      -3.798  34.061  47.749  0.00  0.00    +0.000 A 
ATOM      4  C16 SWF A 404      -3.797  33.569  46.431  0.00  0.00    +0.000 A 
ATOM      5  C17 SWF A 404      -4.926  33.715  45.635  0.00  0.00    +0.000 A 
ATOM      6  C18 SWF A 404      -6.059  34.349  46.136  0.00  0.00    +0.000 A 
ATOM      7  C19 SWF A 404      -6.063  34.835  47.435  0.00  0.00    +0.000 A 
ATOM      8  C20 SWF A 404      -4.918  34.687  48.239  0.00  0.00    +0.000 A 
ATOM      9  O21 SWF A 404      -4.904  35.167  49.536  0.00  0.00    +0.000 OA
ATOM     10  C22 SWF A 404      -3.994  34.650  50.408  0.00  0.00    +0.000 C 
ATOM     11  O23 SWF A 404      -4.289  34.563  51.554  0.00  0.00    +0.000 OA
ENDROOT
BRANCH   2  12
ATOM     12  O14 SWF A 404      -1.863  32.942  48.003  0.00  0.00    +0.000 OA
ATOM     13  H   SWF A 404      -1.284  33.342  47.336  0.00  0.00    +0.000 HD
ENDBRANCH   2  12
BRANCH   1  14
ATOM     14  C5  SWF A 404      -1.543  33.921  50.784  0.00  0.00    +0.000 C 
BRANCH  14  15
ATOM     15  C6  SWF A 404      -1.342  32.401  50.852  0.00  0.00    +0.000 A 
ATOM     16  C7  SWF A 404      -2.372  31.563  51.257  0.00  0.00    +0.000 A 
ATOM     17  C8  SWF A 404      -2.181  30.191  51.304  0.00  0.00    +0.000 A 
ATOM     18  C9  SWF A 404      -0.958  29.648  50.944  0.00  0.00    +0.000 A 
ATOM     19  C10 SWF A 404       0.072  30.481  50.535  0.00  0.00    +0.000 A 
ATOM     20  C11 SWF A 404      -0.120  31.853  50.487  0.00  0.00    +0.000 A 
ENDBRANCH  14  15
BRANCH  14  21
ATOM     21  C4  SWF A 404      -1.703  34.554  52.171  0.00  0.00    +0.000 C 
BRANCH  21  23
ATOM     22  C1  SWF A 404       0.123  33.631  53.841  0.00  0.00    +0.000 C 
ATOM     23  C2  SWF A 404      -0.367  34.707  52.890  0.00  0.00    +0.000 C 
ATOM     24  O3  SWF A 404       0.294  35.676  52.714  0.00  0.00    +0.000 OA
ENDBRANCH  21  23
ENDBRANCH  14  21
ENDBRANCH   1  14
TORSDOF 5
ENDMDL
