MODEL 1
REMARK VINA RESULT:    -5.626      0.000      0.000
REMARK INTER + INTRA:          -7.543
REMARK INTER:                  -7.105
REMARK INTRA:                  -0.438
REMARK UNBOUND:                -0.438
REMARK  Name = reference_warfarin.pdb
REMARK  6 active torsions:
REMARK  status: ('A' for Active; 'I' for Inactive)
REMARK    1  A    between atoms: C1_1  and  C2_2
REMARK    2  A    between atoms: C2_2  and  C4_4
REMARK    3  A    between atoms: C4_4  and  C5_5
REMARK    4  A    between atoms: C5_5  and  C6_6
REMARK    5  A    between atoms: C5_5  and  C12_12
REMARK    6  A    between atoms: C13_13  and  O14_14
REMARK                            x       y       z     vdW  Elec       q    Type
REMARK                         _______ _______ _______ _____ _____    ______ ____
ROOT
ATOM      1  C12 SWF A 404      -2.063  33.924  50.689  0.00  0.00    +0.000 C 
ATOM      2  C13 SWF A 404      -3.357  34.193  50.331  0.00  0.00    +0.000 C 
ATOM      3  C15 SWF A 404      -3.628  34.983  49.217  0.00  0.00    +0.000 A 
ATOM      4  C16 SWF A 404      -4.929  35.451  48.957  0.00  0.00    +0.000 A 
ATOM      5  C17 SWF A 404      -5.173  36.234  47.836  0.00  0.00    +0.000 A 
ATOM      6  C18 SWF A 404      -4.136  36.555  46.966  0.00  0.00    +0.000 A 
ATOM      7  C19 SWF A 404      -2.852  36.094  47.220  0.00  0.00    +0.000 A 
ATOM      8  C20 SWF A 404      -2.607  35.301  48.355  0.00  0.00    +0.000 A 
ATOM      9  O21 SWF A 404      -1.334  34.832  48.623  0.00  0.00    +0.000 OA
ATOM     10  C22 SWF A 404      -1.038  34.455  49.899  0.00  0.00    +0.000 C 
ATOM     11  O23 SWF A 404       0.069  34.614  50.297  0.00  0.00    +0.000 OA
ENDROOT
BRANCH   2  12
ATOM     12  O14 SWF A 404      -4.424  34.352  51.224  0.00  0.00    +0.000 OA
ATOM     13  H   SWF A 404      -5.104  34.913  50.819  0.00  0.00    +0.000 HD
ENDBRANCH   2  12
BRANCH   1  14
ATOM     14  C5  SWF A 404      -1.817  33.174  52.003  0.00  0.00    +0.000 C 
BRANCH  14  15
ATOM     15  C6  SWF A 404      -1.303  34.170  53.052  0.00  0.00    +0.000 A 
ATOM     16  C7  SWF A 404      -0.165  33.896  53.799  0.00  0.00    +0.000 A 
ATOM     17  C8  SWF A 404       0.294  34.808  54.735  0.00  0.00    +0.000 A 
ATOM     18  C9  SWF A 404      -0.380  36.003  54.928  0.00  0.00    +0.000 A 
ATOM     19  C10 SWF A 404      -1.513  36.283  54.181  0.00  0.00    +0.000 A 
ATOM     20  C11 SWF A 404      -1.972  35.370  53.244  0.00  0.00    +0.000 A 
ENDBRANCH  14  15
BRANCH  14  21
ATOM     21  C4  SWF A 404      -0.855  31.999  51.791  0.00  0.00    +0.000 C 
BRANCH  21  23
ATOM     22  C1  SWF A 404      -0.805  29.475  51.017  0.00  0.00    +0.000 C 
ATOM     23  C2  SWF A 404      -1.582  30.737  51.338  0.00  0.00    +0.000 C 
ATOM     24  O3  SWF A 404      -2.763  30.740  51.227  0.00  0.00    +0.000 OA
ENDBRANCH  21  23
ENDBRANCH  14  21
ENDBRANCH   1  14
TORSDOF 5
ENDMDL
MODEL 2
REMARK VINA RESULT:    -5.583      1.736      4.125
REMARK INTER + INTRA:          -7.490
REMARK INTER:                  -7.635
REMARK INTRA:                   0.145
REMARK UNBOUND:                -0.438
REMARK  Name = reference_warfarin.pdb
REMARK  6 active torsions:
REMARK  status: ('A' for Active; 'I' for Inactive)
REMARK    1  A    between atoms: C1_1  and  C2_2
REMARK    2  A    between atoms: C2_2  and  C4_4
REMARK    3  A    between atoms: C4_4  and  C5_5
REMARK    4  A    between atoms: C5_5  and  C6_6
REMARK    5  A    between atoms: C5_5  and  C12_12
REMARK    6  A    between atoms: C13_13  and  O14_14
REMARK                            x       y       z     vdW  Elec       q    Type
REMARK                         _______ _______ _______ _____ _____    ______ ____
ROOT
ATOM      1  C12 SWF A 404      -2.754  34.208  49.899  0.00  0.00    +0.000 C 
ATOM      2  C13 SWF A 404      -2.681  33.920  48.563  0.00  0.00    +0.000 C 
ATOM      3  C15 SWF A 404      -3.809  34.040  47.755  0.00  0.00    +0.000 A 
ATOM      4  C16 SWF A 404      -3.816  33.545  46.438  0.00  0.00    +0.000 A 
ATOM      5  C17 SWF A 404      -4.953  33.683  45.652  0.00  0.00    +0.000 A 
ATOM      6  C18 SWF A 404      -6.084  34.312  46.161  0.00  0.00    +0.000 A 
ATOM      7  C19 SWF A 404      -6.080  34.801  47.459  0.00  0.00    +0.000 A 
ATOM      8  C20 SWF A 404      -4.928  34.661  48.253  0.00  0.00    +0.000 A 
ATOM      9  O21 SWF A 404      -4.905  35.144  49.548  0.00  0.00    +0.000 OA
ATOM     10  C22 SWF A 404      -3.984  34.634  50.414  0.00  0.00    +0.000 C 
ATOM     11  O23 SWF A 404      -4.268  34.548  51.563  0.00  0.00    +0.000 OA
ENDROOT
BRANCH   2  12
ATOM     12  O14 SWF A 404      -1.866  32.932  47.995  0.00  0.00    +0.000 OA
ATOM     13  H   SWF A 404      -1.887  33.012  47.028  0.00  0.00    +0.000 HD
ENDBRANCH   2  12
BRANCH   1  14
ATOM     14  C5  SWF A 404      -1.526  33.919  50.770  0.00  0.00    +0.000 C 
BRANCH  14  15
ATOM     15  C6  SWF A 404      -1.303  32.401  50.822  0.00  0.00    +0.000 A 
ATOM     16  C7  SWF A 404      -0.082  31.848  50.461  0.00  0.00    +0.000 A 
ATOM     17  C8  SWF A 404       0.110  30.477  50.522  0.00  0.00    +0.000 A 
ATOM     18  C9  SWF A 404      -0.918  29.650  50.947  0.00  0.00    +0.000 A 
ATOM     19  C10 SWF A 404      -2.136  30.200  51.314  0.00  0.00    +0.000 A 
ATOM     20  C11 SWF A 404      -2.328  31.571  51.253  0.00  0.00    +0.000 A 
ENDBRANCH  14  15
BRANCH  14  21
ATOM     21  C4  SWF A 404      -1.687  34.535  52.165  0.00  0.00    +0.000 C 
BRANCH  21  23
ATOM     22  C1  SWF A 404       0.161  33.606  53.807  0.00  0.00    +0.000 C 
ATOM     23  C2  SWF A 404      -0.350  34.693  52.881  0.00  0.00    +0.000 C 
ATOM     24  O3  SWF A 404       0.295  35.676  52.722  0.00  0.00    +0.000 OA
ENDBRANCH  21  23
ENDBRANCH  14  21
ENDBRANCH   1  14
TORSDOF 5
ENDMDL
MODEL 3
REMARK VINA RESULT:    -5.569      1.979      4.103
REMARK INTER + INTRA:          -7.471
REMARK INTER:                  -7.605
REMARK INTRA:                   0.133
REMARK UNBOUND:                -0.438
REMARK  Name = reference_warfarin.pdb
REMARK  6 active torsions:
REMARK  status: ('A' for Active; 'I' for Inactive)
REMARK    1  A    between atoms: C1_1  and  C2_2
REMARK    2  A    between atoms: C2_2  and  C4_4
REMARK    3  A    between atoms: C4_4  and  C5_5
REMARK    4  A    between atoms: C5_5  and  C6_6
REMARK    5  A    between atoms: C5_5  and  C12_12
REMARK    6  A    between atoms: C13_13  and  O14_14
REMARK                            x       y       z     vdW  Elec       q    Type
REMARK                         _______ _______ _______ _____ _____    ______ ____
ROOT
ATOM      1  C12 SWF A 404      -2.379  33.250  48.866  0.00  0.00    +0.000 C 
ATOM      2  C13 SWF A 404      -3.541  33.945  49.064  0.00  0.00    +0.000 C 
ATOM      3  C15 SWF A 404      -4.464  34.083  48.031  0.00  0.00    +0.000 A 
ATOM      4  C16 SWF A 404      -5.552  34.968  48.141  0.00  0.00    +0.000 A 
ATOM      5  C17 SWF A 404      -6.461  35.083  47.097  0.00  0.00    +0.000 A 
ATOM      6  C18 SWF A 404      -6.301  34.323  45.942  0.00  0.00    +0.000 A 
ATOM      7  C19 SWF A 404      -5.229  33.449  45.831  0.00  0.00    +0.000 A 
ATOM      8  C20 SWF A 404      -4.311  33.334  46.890  0.00  0.00    +0.000 A 
ATOM      9  O21 SWF A 404      -3.237  32.467  46.798  0.00  0.00    +0.000 OA
ATOM     10  C22 SWF A 404      -2.161  32.681  47.606  0.00  0.00    +0.000 C 
ATOM     11  O23 SWF A 404      -1.081  32.399  47.202  0.00  0.00    +0.000 OA
ENDROOT
BRANCH   2  12
ATOM     12  O14 SWF A 404      -3.680  35.064  49.898  0.00  0.00    +0.000 OA
ATOM     13  H   SWF A 404      -4.265  35.712  49.475  0.00  0.00    +0.000 HD
ENDBRANCH   2  12
BRANCH   1  14
ATOM     14  C5  SWF A 404      -1.333  33.252  49.986  0.00  0.00    +0.000 C 
BRANCH  14  15
ATOM     15  C6  SWF A 404      -1.112  31.809  50.459  0.00  0.00    +0.000 A 
ATOM     16  C7  SWF A 404      -2.103  31.126  51.151  0.00  0.00    +0.000 A 
ATOM     17  C8  SWF A 404      -1.895  29.819  51.562  0.00  0.00    +0.000 A 
ATOM     18  C9  SWF A 404      -0.695  29.185  51.281  0.00  0.00    +0.000 A 
ATOM     19  C10 SWF A 404       0.294  29.862  50.585  0.00  0.00    +0.000 A 
ATOM     20  C11 SWF A 404       0.086  31.169  50.174  0.00  0.00    +0.000 A 
ENDBRANCH  14  15
BRANCH  14  21
ATOM     21  C4  SWF A 404      -1.757  34.184  51.128  0.00  0.00    +0.000 C 
BRANCH  21  23
ATOM     22  C1  SWF A 404      -0.233  33.632  53.213  0.00  0.00    +0.000 C 
ATOM     23  C2  SWF A 404      -0.590  34.533  52.047  0.00  0.00    +0.000 C 
ATOM     24  O3  SWF A 404       0.040  35.519  51.857  0.00  0.00    +0.000 OA
ENDBRANCH  21  23
ENDBRANCH  14  21
ENDBRANCH   1  14
TORSDOF 5
ENDMDL
MODEL 4
REMARK VINA RESULT:    -5.219      1.289      3.615
REMARK INTER + INTRA:          -7.029
REMARK INTER:                  -6.735
REMARK INTRA:                  -0.295
REMARK UNBOUND:                -0.438
REMARK  Name = reference_warfarin.pdb
REMARK  6 active torsions:
REMARK  status: ('A' for Active; 'I' for Inactive)
REMARK    1  A    between atoms: C1_1  and  C2_2
REMARK    2  A    between atoms: C2_2  and  C4_4
REMARK    3  A    between atoms: C4_4  and  C5_5
REMARK    4  A    between atoms: C5_5  and  C6_6
REMARK    5  A    between atoms: C5_5  and  C12_12
REMARK    6  A    between atoms: C13_13  and  O14_14
REMARK                            x       y       z     vdW  Elec       q    Type
REMARK                         _______ _______ _______ _____ _____    ______ ____
ROOT
ATOM      1  C12 SWF A 404      -1.836  34.490  49.977  0.00  0.00    +0.000 C 
ATOM      2  C13 SWF A 404      -3.187  34.395  49.777  0.00  0.00    +0.000 C 
ATOM      3  C15 SWF A 404      -3.782  35.022  48.686  0.00  0.00    +0.000 A 
ATOM      4  C16 SWF A 404      -5.181  35.124  48.579  0.00  0.00    +0.000 A 
ATOM      5  C17 SWF A 404      -5.749  35.751  47.478  0.00  0.00    +0.000 A 
ATOM      6  C18 SWF A 404      -4.938  36.277  46.476  0.00  0.00    +0.000 A 
ATOM      7  C19 SWF A 404      -3.558  36.179  46.579  0.00  0.00    +0.000 A 
ATOM      8  C20 SWF A 404      -2.986  35.543  47.695  0.00  0.00    +0.000 A 
ATOM      9  O21 SWF A 404      -1.612  35.434  47.813  0.00  0.00    +0.000 OA
ATOM     10  C22 SWF A 404      -1.083  35.220  49.051  0.00  0.00    +0.000 C 
ATOM     11  O23 SWF A 404      -0.020  35.682  49.303  0.00  0.00    +0.000 OA
ENDROOT
BRANCH   2  12
ATOM     12  O14 SWF A 404      -4.149  34.325  50.793  0.00  0.00    +0.000 OA
ATOM     13  H   SWF A 404      -4.825  35.005  50.645  0.00  0.00    +0.000 HD
ENDBRANCH   2  12
BRANCH   1  14
ATOM     14  C5  SWF A 404      -1.253  33.905  51.269  0.00  0.00    +0.000 C 
BRANCH  14  15
ATOM     15  C6  SWF A 404      -1.081  32.390  51.092  0.00  0.00    +0.000 A 
ATOM     16  C7  SWF A 404      -2.064  31.507  51.518  0.00  0.00    +0.000 A 
ATOM     17  C8  SWF A 404      -1.902  30.142  51.343  0.00  0.00    +0.000 A 
ATOM     18  C9  SWF A 404      -0.755  29.651  50.738  0.00  0.00    +0.000 A 
ATOM     19  C10 SWF A 404       0.226  30.530  50.307  0.00  0.00    +0.000 A 
ATOM     20  C11 SWF A 404       0.063  31.896  50.482  0.00  0.00    +0.000 A 
ENDBRANCH  14  15
BRANCH  14  21
ATOM     21  C4  SWF A 404      -2.131  34.259  52.475  0.00  0.00    +0.000 C 
BRANCH  21  23
ATOM     22  C1  SWF A 404      -0.144  34.041  54.200  0.00  0.00    +0.000 C 
ATOM     23  C2  SWF A 404      -1.315  34.821  53.634  0.00  0.00    +0.000 C 
ATOM     24  O3  SWF A 404      -1.600  35.871  54.106  0.00  0.00    +0.000 OA
ENDBRANCH  21  23
ENDBRANCH  14  21
ENDBRANCH   1  14
TORSDOF 5
ENDMDL
MODEL 5
REMARK VINA RESULT:    -4.946      1.958      6.100
REMARK INTER + INTRA:          -6.685
REMARK INTER:                  -6.607
REMARK INTRA:                  -0.078
REMARK UNBOUND:                -0.438
REMARK  Name = reference_warfarin.pdb
REMARK  6 active torsions:
REMARK  status: ('A' for Active; 'I' for Inactive)
REMARK    1  A    between atoms: C1_1  and  C2_2
REMARK    2  A    between atoms: C2_2  and  C4_4
REMARK    3  A    between atoms: C4_4  and  C5_5
REMARK    4  A    between atoms: C5_5  and  C6_6
REMARK    5  A    between atoms: C5_5  and  C12_12
REMARK    6  A    between atoms: C13_13  and  O14_14
REMARK                            x       y       z     vdW  Elec       q    Type
REMARK                         _______ _______ _______ _____ _____    ______ ____
ROOT
ATOM      1  C12 SWF A 404      -3.016  34.148  50.009  0.00  0.00    +0.000 C 
ATOM      2  C13 SWF A 404      -2.008  33.417  50.581  0.00  0.00    +0.000 C 
ATOM      3  C15 SWF A 404      -1.581  33.702  51.875  0.00  0.00    +0.000 A 
ATOM      4  C16 SWF A 404      -0.413  33.119  52.400  0.00  0.00    +0.000 A 
ATOM      5  C17 SWF A 404      -0.011  33.416  53.696  0.00  0.00    +0.000 A 
ATOM      6  C18 SWF A 404      -0.763  34.286  54.479  0.00  0.00    +0.000 A 
ATOM      7  C19 SWF A 404      -1.915  34.863  53.965  0.00  0.00    +0.000 A 
ATOM      8  C20 SWF A 404      -2.319  34.560  52.652  0.00  0.00    +0.000 A 
ATOM      9  O21 SWF A 404      -3.465  35.124  52.123  0.00  0.00    +0.000 OA
ATOM     10  C22 SWF A 404      -3.600  35.168  50.768  0.00  0.00    +0.000 C 
ATOM     11  O23 SWF A 404      -4.184  36.080  50.283  0.00  0.00    +0.000 OA
ENDROOT
BRANCH   2  12
ATOM     12  O14 SWF A 404      -0.916  32.873  49.892  0.00  0.00    +0.000 OA
ATOM     13  H   SWF A 404      -1.187  32.638  48.991  0.00  0.00    +0.000 HD
ENDBRANCH   2  12
BRANCH   1  14
ATOM     14  C5  SWF A 404      -3.348  33.892  48.535  0.00  0.00    +0.000 C 
BRANCH  14  15
ATOM     15  C6  SWF A 404      -2.276  34.561  47.663  0.00  0.00    +0.000 A 
ATOM     16  C7  SWF A 404      -1.975  35.908  47.812  0.00  0.00    +0.000 A 
ATOM     17  C8  SWF A 404      -0.998  36.498  47.027  0.00  0.00    +0.000 A 
ATOM     18  C9  SWF A 404      -0.313  35.743  46.088  0.00  0.00    +0.000 A 
ATOM     19  C10 SWF A 404      -0.606  34.396  45.940  0.00  0.00    +0.000 A 
ATOM     20  C11 SWF A 404      -1.584  33.807  46.727  0.00  0.00    +0.000 A 
ENDBRANCH  14  15
BRANCH  14  21
ATOM     21  C4  SWF A 404      -4.763  34.379  48.200  0.00  0.00    +0.000 C 
BRANCH  21  23
ATOM     22  C1  SWF A 404      -6.094  34.501  45.924  0.00  0.00    +0.000 C 
ATOM     23  C2  SWF A 404      -5.324  33.700  46.955  0.00  0.00    +0.000 C 
ATOM     24  O3  SWF A 404      -5.168  32.536  46.793  0.00  0.00    +0.000 OA
ENDBRANCH  21  23
ENDBRANCH  14  21
ENDBRANCH   1  14
TORSDOF 5
ENDMDL
MODEL 6
REMARK VINA RESULT:    -4.808      1.721      5.384
REMARK INTER + INTRA:          -6.511
REMARK INTER:                  -6.010
REMARK INTRA:                  -0.501
REMARK UNBOUND:                -0.438
REMARK  Name = reference_warfarin.pdb
REMARK  6 active torsions:
REMARK  status: ('A' for Active; 'I' for Inactive)
REMARK    1  A    between atoms: C1_1  and  C2_2
REMARK    2  A    between atoms: C2_2  and  C4_4
REMARK    3  A    between atoms: C4_4  and  C5_5
REMARK    4  A    between atoms: C5_5  and  C6_6
REMARK    5  A    between atoms: C5_5  and  C12_12
REMARK    6  A    between atoms: C13_13  and  O14_14
REMARK                            x       y       z     vdW  Elec       q    Type
REMARK                         _______ _______ _______ _____ _____    ______ ____
ROOT
ATOM      1  C12 SWF A 404      -1.646  34.723  49.802  0.00  0.00    +0.000 C 
ATOM      2  C13 SWF A 404      -2.273  34.348  50.959  0.00  0.00    +0.000 C 
ATOM      3  C15 SWF A 404      -1.839  34.842  52.186  0.00  0.00    +0.000 A 
ATOM      4  C16 SWF A 404      -2.319  34.309  53.396  0.00  0.00    +0.000 A 
ATOM      5  C17 SWF A 404      -1.872  34.824  54.607  0.00  0.00    +0.000 A 
ATOM      6  C18 SWF A 404      -0.953  35.868  54.627  0.00  0.00    +0.000 A 
ATOM      7  C19 SWF A 404      -0.477  36.396  53.435  0.00  0.00    +0.000 A 
ATOM      8  C20 SWF A 404      -0.932  35.873  52.211  0.00  0.00    +0.000 A 
ATOM      9  O21 SWF A 404      -0.470  36.388  51.014  0.00  0.00    +0.000 OA
ATOM     10  C22 SWF A 404      -0.574  35.618  49.894  0.00  0.00    +0.000 C 
ATOM     11  O23 SWF A 404       0.260  35.717  49.055  0.00  0.00    +0.000 OA
ENDROOT
BRANCH   2  12
ATOM     12  O14 SWF A 404      -2.845  33.091  51.196  0.00  0.00    +0.000 OA
ATOM     13  H   SWF A 404      -2.852  32.913  52.150  0.00  0.00    +0.000 HD
ENDBRANCH   2  12
BRANCH   1  14
ATOM     14  C5  SWF A 404      -2.067  34.039  48.496  0.00  0.00    +0.000 C 
BRANCH  14  15
ATOM     15  C6  SWF A 404      -3.505  34.459  48.161  0.00  0.00    +0.000 A 
ATOM     16  C7  SWF A 404      -3.987  35.708  48.526  0.00  0.00    +0.000 A 
ATOM     17  C8  SWF A 404      -5.284  36.079  48.208  0.00  0.00    +0.000 A 
ATOM     18  C9  SWF A 404      -6.107  35.202  47.519  0.00  0.00    +0.000 A 
ATOM     19  C10 SWF A 404      -5.628  33.956  47.148  0.00  0.00    +0.000 A 
ATOM     20  C11 SWF A 404      -4.330  33.585  47.466  0.00  0.00    +0.000 A 
ENDBRANCH  14  15
BRANCH  14  21
ATOM     21  C4  SWF A 404      -1.910  32.517  48.599  0.00  0.00    +0.000 C 
BRANCH  21  23
ATOM     22  C1  SWF A 404       0.068  31.462  49.994  0.00  0.00    +0.000 C 
ATOM     23  C2  SWF A 404      -0.449  32.098  48.718  0.00  0.00    +0.000 C 
ATOM     24  O3  SWF A 404       0.295  32.276  47.812  0.00  0.00    +0.000 OA
ENDBRANCH  21  23
ENDBRANCH  14  21
ENDBRANCH   1  14
TORSDOF 5
ENDMDL
MODEL 7
REMARK VINA RESULT:    -4.796      1.786      2.919
REMARK INTER + INTRA:          -6.496
REMARK INTER:                  -6.125
REMARK INTRA:                  -0.371
REMARK UNBOUND:                -0.438
REMARK  Name = reference_warfarin.pdb
REMARK  6 active torsions:
REMARK  status: ('A' for Active; 'I' for Inactive)
REMARK    1  A    between atoms: C1_1  and  C2_2
REMARK    2  A    between atoms: C2_2  and  C4_4
REMARK    3  A    between atoms: C4_4  and  C5_5
REMARK    4  A    between atoms: C5_5  and  C6_6
REMARK    5  A    between atoms: C5_5  and  C12_12
REMARK    6  A    between atoms: C13_13  and  O14_14
REMARK                            x       y       z     vdW  Elec       q    Type
REMARK                         _______ _______ _______ _____ _____    ______ ____
ROOT
ATOM      1  C12 SWF A 404      -2.128  33.600  49.379  0.00  0.00    +0.000 C 
ATOM      2  C13 SWF A 404      -1.178  34.582  49.303  0.00  0.00    +0.000 C 
ATOM      3  C15 SWF A 404      -0.987  35.287  48.118  0.00  0.00    +0.000 A 
ATOM      4  C16 SWF A 404       0.119  36.140  47.949  0.00  0.00    +0.000 A 
ATOM      5  C17 SWF A 404       0.283  36.835  46.757  0.00  0.00    +0.000 A 
ATOM      6  C18 SWF A 404      -0.645  36.693  45.730  0.00  0.00    +0.000 A 
ATOM      7  C19 SWF A 404      -1.737  35.852  45.894  0.00  0.00    +0.000 A 
ATOM      8  C20 SWF A 404      -1.900  35.150  47.102  0.00  0.00    +0.000 A 
ATOM      9  O21 SWF A 404      -2.983  34.309  47.283  0.00  0.00    +0.000 OA
ATOM     10  C22 SWF A 404      -2.898  33.341  48.240  0.00  0.00    +0.000 C 
ATOM     11  O23 SWF A 404      -3.459  32.311  48.058  0.00  0.00    +0.000 OA
ENDROOT
BRANCH   2  12
ATOM     12  O14 SWF A 404       0.047  34.573  49.984  0.00  0.00    +0.000 OA
ATOM     13  H   SWF A 404       0.759  34.344  49.366  0.00  0.00    +0.000 HD
ENDBRANCH   2  12
BRANCH   1  14
ATOM     14  C5  SWF A 404      -2.198  32.757  50.657  0.00  0.00    +0.000 C 
BRANCH  14  15
ATOM     15  C6  SWF A 404      -2.184  33.698  51.870  0.00  0.00    +0.000 A 
ATOM     16  C7  SWF A 404      -3.199  34.624  52.066  0.00  0.00    +0.000 A 
ATOM     17  C8  SWF A 404      -3.181  35.460  53.170  0.00  0.00    +0.000 A 
ATOM     18  C9  SWF A 404      -2.147  35.373  54.090  0.00  0.00    +0.000 A 
ATOM     19  C10 SWF A 404      -1.135  34.445  53.901  0.00  0.00    +0.000 A 
ATOM     20  C11 SWF A 404      -1.154  33.608  52.796  0.00  0.00    +0.000 A 
ENDBRANCH  14  15
BRANCH  14  21
ATOM     21  C4  SWF A 404      -1.061  31.730  50.699  0.00  0.00    +0.000 C 
BRANCH  21  23
ATOM     22  C1  SWF A 404      -0.563  29.240  51.422  0.00  0.00    +0.000 C 
ATOM     23  C2  SWF A 404      -1.553  30.344  51.104  0.00  0.00    +0.000 C 
ATOM     24  O3  SWF A 404      -2.716  30.122  51.162  0.00  0.00    +0.000 OA
ENDBRANCH  21  23
ENDBRANCH  14  21
ENDBRANCH   1  14
TORSDOF 5
ENDMDL
MODEL 8
REMARK VINA RESULT:    -4.643      2.130      5.913
REMARK INTER + INTRA:          -6.302
REMARK INTER:                  -5.708
REMARK INTRA:                  -0.595
REMARK UNBOUND:                -0.438
REMARK  Name = reference_warfarin.pdb
REMARK  6 active torsions:
REMARK  status: ('A' for Active; 'I' for Inactive)
REMARK    1  A    between atoms: C1_1  and  C2_2
REMARK    2  A    between atoms: C2_2  and  C4_4
REMARK    3  A    between atoms: C4_4  and  C5_5
REMARK    4  A    between atoms: C5_5  and  C6_6
REMARK    5  A    between atoms: C5_5  and  C12_12
REMARK    6  A    between atoms: C13_13  and  O14_14
REMARK                            x       y       z     vdW  Elec       q    Type
REMARK                         _______ _______ _______ _____ _____    ______ ____
ROOT
ATOM      1  C12 SWF A 404      -1.237  33.745  49.929  0.00  0.00    +0.000 C 
ATOM      2  C13 SWF A 404      -0.556  34.808  50.456  0.00  0.00    +0.000 C 
ATOM      3  C15 SWF A 404      -0.377  34.918  51.832  0.00  0.00    +0.000 A 
ATOM      4  C16 SWF A 404       0.122  36.099  52.410  0.00  0.00    +0.000 A 
ATOM      5  C17 SWF A 404       0.294  36.180  53.786  0.00  0.00    +0.000 A 
ATOM      6  C18 SWF A 404      -0.022  35.093  54.596  0.00  0.00    +0.000 A 
ATOM      7  C19 SWF A 404      -0.515  33.927  54.029  0.00  0.00    +0.000 A 
ATOM      8  C20 SWF A 404      -0.688  33.848  52.636  0.00  0.00    +0.000 A 
ATOM      9  O21 SWF A 404      -1.176  32.693  52.054  0.00  0.00    +0.000 OA
ATOM     10  C22 SWF A 404      -1.731  32.778  50.811  0.00  0.00    +0.000 C 
ATOM     11  O23 SWF A 404      -2.625  32.048  50.536  0.00  0.00    +0.000 OA
ENDROOT
BRANCH   2  12
ATOM     12  O14 SWF A 404      -0.561  36.108  49.933  0.00  0.00    +0.000 OA
ATOM     13  H   SWF A 404      -1.191  36.158  49.197  0.00  0.00    +0.000 HD
ENDBRANCH   2  12
BRANCH   1  14
ATOM     14  C5  SWF A 404      -1.532  33.747  48.425  0.00  0.00    +0.000 C 
BRANCH  14  15
ATOM     15  C6  SWF A 404      -3.019  34.064  48.213  0.00  0.00    +0.000 A 
ATOM     16  C7  SWF A 404      -3.620  35.132  48.865  0.00  0.00    +0.000 A 
ATOM     17  C8  SWF A 404      -4.960  35.415  48.657  0.00  0.00    +0.000 A 
ATOM     18  C9  SWF A 404      -5.709  34.631  47.792  0.00  0.00    +0.000 A 
ATOM     19  C10 SWF A 404      -5.111  33.567  47.135  0.00  0.00    +0.000 A 
ATOM     20  C11 SWF A 404      -3.769  33.285  47.343  0.00  0.00    +0.000 A 
ENDBRANCH  14  15
BRANCH  14  21
ATOM     21  C4  SWF A 404      -1.120  32.417  47.784  0.00  0.00    +0.000 C 
BRANCH  21  23
ATOM     22  C1  SWF A 404       0.295  34.006  46.221  0.00  0.00    +0.000 C 
ATOM     23  C2  SWF A 404      -0.177  32.616  46.602  0.00  0.00    +0.000 C 
ATOM     24  O3  SWF A 404       0.186  31.682  45.969  0.00  0.00    +0.000 OA
ENDBRANCH  21  23
ENDBRANCH  14  21
ENDBRANCH   1  14
TORSDOF 5
ENDMDL
