REMARK  Name = reference_warfarin.pdb
REMARK  6 active torsions:
REMARK  status: ('A' for Active; 'I' for Inactive)
REMARK    1  A    between atoms: C1_1  and  C2_2
REMARK    2  A    between atoms: C2_2  and  C4_4
REMARK    3  A    between atoms: C4_4  and  C5_5
REMARK    4  A    between atoms: C5_5  and  C6_6
REMARK    5  A    between atoms: C5_5  and  C12_12
REMARK    6  A    between atoms: C13_13  and  O14_14
REMARK                            x       y       z     vdW  Elec       q    Type
REMARK                         _______ _______ _______ _____ _____    ______ ____
ROOT
ATOM      1  C12 SWF A 404     -10.345  26.985  56.078  0.00  0.00    +0.000 C 
ATOM      2  C13 SWF A 404     -10.374  28.068  55.241  0.00  0.00    +0.000 C 
ATOM      3  C15 SWF A 404     -11.360  28.176  54.264  0.00  0.00    +0.000 A 
ATOM      4  C16 SWF A 404     -11.284  29.157  53.259  0.00  0.00    +0.000 A 
ATOM      5  C17 SWF A 404     -12.284  29.246  52.299  0.00  0.00    +0.000 A 
ATOM      6  C18 SWF A 404     -13.364  28.369  52.330  0.00  0.00    +0.000 A 
ATOM      7  C19 SWF A 404     -13.442  27.400  53.320  0.00  0.00    +0.000 A 
ATOM      8  C20 SWF A 404     -12.428  27.313  54.291  0.00  0.00    +0.000 A 
ATOM      9  O21 SWF A 404     -12.490  26.355  55.286  0.00  0.00    +0.000 OA
ATOM     10  C22 SWF A 404     -11.337  26.010  55.926  0.00  0.00    +0.000 C 
ATOM     11  O23 SWF A 404     -11.209  24.893  56.306  0.00  0.00    +0.000 OA
ENDROOT
BRANCH   2  12
ATOM     12  O14 SWF A 404      -9.246  28.754  54.771  0.00  0.00    +0.000 OA
ATOM     13  H   SWF A 404      -8.957  28.364  53.931  0.00  0.00    +0.000 HD
ENDBRANCH   2  12
BRANCH   1  14
ATOM     14  C5  SWF A 404      -9.157  26.842  57.036  0.00  0.00    +0.000 C 
BRANCH  14  15
ATOM     15  C6  SWF A 404      -8.054  26.034  56.338  0.00  0.00    +0.000 A 
ATOM     16  C7  SWF A 404      -8.189  24.667  56.139  0.00  0.00    +0.000 A 
ATOM     17  C8  SWF A 404      -7.191  23.951  55.498  0.00  0.00    +0.000 A 
ATOM     18  C9  SWF A 404      -6.051  24.599  55.049  0.00  0.00    +0.000 A 
ATOM     19  C10 SWF A 404      -5.915  25.965  55.241  0.00  0.00    +0.000 A 
ATOM     20  C11 SWF A 404      -6.914  26.681  55.882  0.00  0.00    +0.000 A 
ENDBRANCH  14  15
BRANCH  14  21
ATOM     21  C4  SWF A 404      -9.596  26.210  58.362  0.00  0.00    +0.000 C 
BRANCH  21  23
ATOM     22  C1  SWF A 404      -8.006  28.051  59.389  0.00  0.00    +0.000 C 
ATOM     23  C2  SWF A 404      -8.856  26.806  59.555  0.00  0.00    +0.000 C 
ATOM     24  O3  SWF A 404      -8.936  26.291  60.620  0.00  0.00    +0.000 OA
ENDBRANCH  21  23
ENDBRANCH  14  21
ENDBRANCH   1  14
TORSDOF 5
