REMARK SMILES CC(=O)N[C@H](c1ccccc1)c1c([O-])c2ccccc2oc1=O
REMARK SMILES IDX 5 1 4 2 2 3 3 4 1 5 6 7 7 8 11 9 8 10 10 11 9 12 12 13 13 14
REMARK SMILES IDX 22 15 15 16 21 17 23 18 16 19 20 20 17 21 19 22 18 23 14 24
REMARK H PARENT 4 6
ROOT
ATOM      1  C   UNL     1      -1.060   0.590  -0.579  1.00  0.00     0.149 C 
ENDROOT
BRANCH   1   2
ATOM      2  N   UNL     1      -1.405   1.574   0.431  1.00  0.00    -0.345 N 
ATOM      3  C   UNL     1      -2.479   2.408   0.390  1.00  0.00     0.217 C 
ATOM      4  O   UNL     1      -3.299   2.456  -0.523  1.00  0.00    -0.275 OA
ATOM      5  C   UNL     1      -2.562   3.325   1.579  1.00  0.00     0.114 C 
ATOM      6  H   UNL     1      -0.708   1.624   1.185  1.00  0.00     0.164 HD
ENDBRANCH   1   2
BRANCH   1   7
ATOM      7  C   UNL     1      -1.879  -0.684  -0.362  1.00  0.00    -0.021 A 
ATOM      8  C   UNL     1      -2.816  -1.095  -1.323  1.00  0.00     0.006 A 
ATOM      9  C   UNL     1      -1.723  -1.461   0.798  1.00  0.00     0.006 A 
ATOM     10  C   UNL     1      -3.570  -2.255  -1.133  1.00  0.00     0.000 A 
ATOM     11  C   UNL     1      -2.477  -2.621   0.987  1.00  0.00     0.000 A 
ATOM     12  C   UNL     1      -3.399  -3.018   0.021  1.00  0.00     0.000 A 
ENDBRANCH   1   7
BRANCH   1  13
ATOM     13  C   UNL     1       0.456   0.321  -0.589  1.00  0.00     0.057 A 
ATOM     14  C   UNL     1       1.311   0.565   0.451  1.00  0.00    -0.085 A 
ATOM     15  C   UNL     1       0.882  -0.225  -1.909  1.00  0.00     0.341 A 
ATOM     16  C   UNL     1       2.739   0.195   0.171  1.00  0.00     0.010 A 
ATOM     17  O   UNL     1       2.205  -0.590  -2.067  1.00  0.00    -0.423 OA
ATOM     18  O   UNL     1       0.109  -0.356  -2.857  1.00  0.00    -0.246 OA
ATOM     19  C   UNL     1       3.758   0.385   1.126  1.00  0.00     0.011 A 
ATOM     20  C   UNL     1       3.123  -0.364  -1.041  1.00  0.00     0.137 A 
ATOM     21  C   UNL     1       5.088   0.030   0.869  1.00  0.00     0.001 A 
ATOM     22  C   UNL     1       4.447  -0.727  -1.318  1.00  0.00     0.048 A 
ATOM     23  C   UNL     1       5.433  -0.529  -0.357  1.00  0.00     0.004 A 
ATOM     24  O   UNL     1       1.002   1.045   1.588  1.00  0.00    -0.872 OA
ENDBRANCH   1  13
TORSDOF 3
