REMARK SMILES CC(=O)N[C@@H](c1cccc(Br)c1)c1c([O-])c2ccccc2oc1=O
REMARK SMILES IDX 5 1 4 2 2 3 3 4 1 5 6 7 12 8 7 9 10 10 8 11 9 12 11 13 13 14
REMARK SMILES IDX 14 15 23 16 16 17 22 18 24 19 17 20 21 21 18 22 20 23 19 24
REMARK SMILES IDX 15 25
REMARK H PARENT 4 6
ROOT
ATOM      1  C   UNL     1       1.003   0.484  -0.724  1.00  0.00     0.149 C 
ENDROOT
BRANCH   1   2
ATOM      2  N   UNL     1       1.503   1.528   0.152  1.00  0.00    -0.345 N 
ATOM      3  C   UNL     1       2.615   2.280  -0.069  1.00  0.00     0.217 C 
ATOM      4  O   UNL     1       3.342   2.185  -1.054  1.00  0.00    -0.275 OA
ATOM      5  C   UNL     1       2.868   3.297   1.011  1.00  0.00     0.114 C 
ATOM      6  H   UNL     1       0.891   1.690   0.962  1.00  0.00     0.164 HD
ENDBRANCH   1   2
BRANCH   1   7
ATOM      7  C   UNL     1       1.780  -0.810  -0.477  1.00  0.00    -0.020 A 
ATOM      8  C   UNL     1       2.593  -1.351  -1.486  1.00  0.00     0.022 A 
ATOM      9  C   UNL     1       1.708  -1.476   0.759  1.00  0.00     0.006 A 
ATOM     10  C   UNL     1       3.304  -2.529  -1.260  1.00  0.00     0.018 A 
ATOM     11  C   UNL     1       2.422  -2.655   0.980  1.00  0.00     0.002 A 
ATOM     12  C   UNL     1       3.221  -3.185  -0.032  1.00  0.00     0.016 A 
ATOM     13  Br  UNL     1       4.393  -3.248  -2.630  1.00  0.00    -0.051 Br
ENDBRANCH   1   7
BRANCH   1  14
ATOM     14  C   UNL     1      -0.515   0.301  -0.552  1.00  0.00     0.057 A 
ATOM     15  C   UNL     1      -1.239   0.679   0.546  1.00  0.00    -0.085 A 
ATOM     16  C   UNL     1      -1.107  -0.332  -1.765  1.00  0.00     0.341 A 
ATOM     17  C   UNL     1      -2.705   0.373   0.449  1.00  0.00     0.010 A 
ATOM     18  O   UNL     1      -2.458  -0.617  -1.758  1.00  0.00    -0.423 OA
ATOM     19  O   UNL     1      -0.442  -0.604  -2.764  1.00  0.00    -0.246 OA
ATOM     20  C   UNL     1      -3.603   0.699   1.484  1.00  0.00     0.011 A 
ATOM     21  C   UNL     1      -3.247  -0.254  -0.666  1.00  0.00     0.137 A 
ATOM     22  C   UNL     1      -4.970   0.405   1.397  1.00  0.00     0.001 A 
ATOM     23  C   UNL     1      -4.610  -0.557  -0.773  1.00  0.00     0.048 A 
ATOM     24  C   UNL     1      -5.475  -0.225   0.265  1.00  0.00     0.004 A 
ATOM     25  O   UNL     1      -0.784   1.233   1.596  1.00  0.00    -0.872 OA
ENDBRANCH   1  14
TORSDOF 3
