REMARK SMILES CC(=O)C[C@@H](c1ccccc1)c1c([O-])c2ccccc2oc1=O
REMARK SMILES IDX 4 1 2 2 3 3 1 4 5 5 6 6 7 7 11 8 8 9 10 10 9 11 12 12 13 13
REMARK SMILES IDX 22 14 15 15 21 16 23 17 16 18 20 19 17 20 19 21 18 22 14 23
REMARK H PARENT
ROOT
ATOM      1  C   UNL     1      -1.841   1.521   0.900  1.00  0.00     0.088 C 
ENDROOT
BRANCH   1   2
ATOM      2  C   UNL     1      -1.234   2.487   1.894  1.00  0.00     0.130 C 
ATOM      3  O   UNL     1      -1.630   2.522   3.065  1.00  0.00    -0.300 OA
ATOM      4  C   UNL     1      -0.124   3.395   1.440  1.00  0.00     0.087 C 
ENDBRANCH   1   2
BRANCH   1   5
ATOM      5  C   UNL     1      -1.181   0.128   0.972  1.00  0.00     0.063 C 
BRANCH   5   6
ATOM      6  C   UNL     1      -2.104  -0.918   0.329  1.00  0.00    -0.040 A 
ATOM      7  C   UNL     1      -2.643  -1.957   1.104  1.00  0.00     0.004 A 
ATOM      8  C   UNL     1      -2.421  -0.866  -1.036  1.00  0.00     0.004 A 
ATOM      9  C   UNL     1      -3.488  -2.910   0.530  1.00  0.00     0.000 A 
ATOM     10  C   UNL     1      -3.265  -1.819  -1.610  1.00  0.00     0.000 A 
ATOM     11  C   UNL     1      -3.801  -2.839  -0.826  1.00  0.00     0.000 A 
ENDBRANCH   5   6
BRANCH   5  12
ATOM     12  C   UNL     1       0.278  -0.043   0.492  1.00  0.00     0.038 A 
ATOM     13  C   UNL     1       0.850   0.647  -0.536  1.00  0.00    -0.086 A 
ATOM     14  C   UNL     1       1.006  -1.071   1.305  1.00  0.00     0.339 A 
ATOM     15  C   UNL     1       2.289   0.298  -0.795  1.00  0.00     0.010 A 
ATOM     16  O   UNL     1       2.317  -1.357   0.981  1.00  0.00    -0.423 OA
ATOM     17  O   UNL     1       0.488  -1.661   2.253  1.00  0.00    -0.246 OA
ATOM     18  C   UNL     1       3.039   0.929  -1.808  1.00  0.00     0.011 A 
ATOM     19  C   UNL     1       2.951  -0.668  -0.050  1.00  0.00     0.137 A 
ATOM     20  C   UNL     1       4.378   0.602  -2.053  1.00  0.00     0.001 A 
ATOM     21  C   UNL     1       4.290  -1.012  -0.279  1.00  0.00     0.048 A 
ATOM     22  C   UNL     1       5.006  -0.372  -1.285  1.00  0.00     0.004 A 
ATOM     23  O   UNL     1       0.292   1.516  -1.272  1.00  0.00    -0.872 OA
ENDBRANCH   5  12
ENDBRANCH   1   5
TORSDOF 4
