REMARK SMILES CC(=O)C[C@H](c1ccccc1)c1c([O-])c2ccccc2oc1=O
REMARK SMILES IDX 4 1 2 2 3 3 1 4 5 5 6 6 7 7 11 8 8 9 10 10 9 11 12 12 13 13
REMARK SMILES IDX 22 14 15 15 21 16 23 17 16 18 20 19 17 20 19 21 18 22 14 23
REMARK H PARENT
ROOT
ATOM      1  C   UNL     1      -1.908   1.396  -0.907  1.00  0.00     0.088 C 
ENDROOT
BRANCH   1   2
ATOM      2  C   UNL     1      -1.342   2.361  -1.926  1.00  0.00     0.130 C 
ATOM      3  O   UNL     1      -1.727   2.339  -3.101  1.00  0.00    -0.300 OA
ATOM      4  C   UNL     1      -0.286   3.339  -1.490  1.00  0.00     0.087 C 
ENDBRANCH   1   2
BRANCH   1   5
ATOM      5  C   UNL     1      -1.176   0.037  -0.929  1.00  0.00     0.063 C 
BRANCH   5   6
ATOM      6  C   UNL     1      -2.050  -1.036  -0.263  1.00  0.00    -0.040 A 
ATOM      7  C   UNL     1      -2.385  -0.958   1.098  1.00  0.00     0.004 A 
ATOM      8  C   UNL     1      -2.526  -2.125  -1.009  1.00  0.00     0.004 A 
ATOM      9  C   UNL     1      -3.183  -1.936   1.693  1.00  0.00     0.000 A 
ATOM     10  C   UNL     1      -3.326  -3.102  -0.413  1.00  0.00     0.000 A 
ATOM     11  C   UNL     1      -3.656  -3.006   0.937  1.00  0.00     0.000 A 
ENDBRANCH   5   6
BRANCH   5  12
ATOM     12  C   UNL     1       0.284  -0.042  -0.431  1.00  0.00     0.038 A 
ATOM     13  C   UNL     1       0.809   0.709   0.580  1.00  0.00    -0.086 A 
ATOM     14  C   UNL     1       1.074  -1.054  -1.204  1.00  0.00     0.339 A 
ATOM     15  C   UNL     1       2.261   0.444   0.863  1.00  0.00     0.010 A 
ATOM     16  O   UNL     1       2.395  -1.261  -0.860  1.00  0.00    -0.423 OA
ATOM     17  O   UNL     1       0.598  -1.700  -2.138  1.00  0.00    -0.246 OA
ATOM     18  C   UNL     1       2.965   1.145   1.863  1.00  0.00     0.011 A 
ATOM     19  C   UNL     1       2.981  -0.509   0.156  1.00  0.00     0.137 A 
ATOM     20  C   UNL     1       4.317   0.897   2.131  1.00  0.00     0.001 A 
ATOM     21  C   UNL     1       4.333  -0.774   0.407  1.00  0.00     0.048 A 
ATOM     22  C   UNL     1       5.004  -0.067   1.400  1.00  0.00     0.004 A 
ATOM     23  O   UNL     1       0.198   1.569   1.283  1.00  0.00    -0.872 OA
ENDBRANCH   5  12
ENDBRANCH   1   5
TORSDOF 4
