REMARK  Name = proteins/protonated/1D3D_chainH_protonated.pdb
REMARK                            x       y       z     vdW  Elec       q    Type
REMARK                         _______ _______ _______ _____ _____    ______ ____
ATOM      1  N   GLY H 300     -32.824 -33.545   4.721  0.00  0.00    +0.000 NA
ATOM      2  CA  GLY H 300     -32.271 -33.829   3.366  0.00  0.00    +0.000 C 
ATOM      3  C   GLY H 300     -30.969 -33.096   3.108  0.00  0.00    +0.000 C 
ATOM      4  O   GLY H 300     -30.380 -32.525   4.029  0.00  0.00    +0.000 OA
ATOM      5  N   ASP H 301     -30.517 -33.112   1.856  0.00  0.00    +0.000 N 
ATOM      6  CA  ASP H 301     -29.277 -32.443   1.486  0.00  0.00    +0.000 C 
ATOM      7  C   ASP H 301     -29.490 -30.941   1.327  0.00  0.00    +0.000 C 
ATOM      8  O   ASP H 301     -30.618 -30.449   1.364  0.00  0.00    +0.000 OA
ATOM      9  CB  ASP H 301     -28.709 -33.038   0.191  0.00  0.00    +0.000 C 
ATOM     10  CG  ASP H 301     -29.621 -32.823  -1.012  0.00  0.00    +0.000 C 
ATOM     11  OD1 ASP H 301     -30.743 -32.295  -0.840  0.00  0.00    +0.000 OA
ATOM     12  OD2 ASP H 301     -29.211 -33.186  -2.136  0.00  0.00    +0.000 OA
ATOM     13  N   PHE H 302     -28.392 -30.222   1.142  0.00  0.00    +0.000 N 
ATOM     14  CA  PHE H 302     -28.438 -28.777   1.005  0.00  0.00    +0.000 C 
ATOM     15  C   PHE H 302     -28.667 -28.297  -0.416  0.00  0.00    +0.000 C 
ATOM     16  O   PHE H 302     -28.307 -28.965  -1.382  0.00  0.00    +0.000 OA
ATOM     17  CB  PHE H 302     -27.145 -28.173   1.552  0.00  0.00    +0.000 C 
ATOM     18  CG  PHE H 302     -27.011 -28.292   3.042  0.00  0.00    +0.000 A 
ATOM     19  CD1 PHE H 302     -27.414 -27.251   3.874  0.00  0.00    +0.000 A 
ATOM     20  CD2 PHE H 302     -26.513 -29.455   3.618  0.00  0.00    +0.000 A 
ATOM     21  CE1 PHE H 302     -27.325 -27.368   5.257  0.00  0.00    +0.000 A 
ATOM     22  CE2 PHE H 302     -26.421 -29.580   5.004  0.00  0.00    +0.000 A 
ATOM     23  CZ  PHE H 302     -26.830 -28.534   5.822  0.00  0.00    +0.000 A 
ATOM     24  N   GLU H 303     -29.272 -27.123  -0.533  0.00  0.00    +0.000 N 
ATOM     25  CA  GLU H 303     -29.544 -26.542  -1.831  0.00  0.00    +0.000 C 
ATOM     26  C   GLU H 303     -28.296 -25.851  -2.368  0.00  0.00    +0.000 C 
ATOM     27  O   GLU H 303     -27.467 -25.350  -1.608  0.00  0.00    +0.000 OA
ATOM     28  CB  GLU H 303     -30.700 -25.546  -1.731  0.00  0.00    +0.000 C 
ATOM     29  CG  GLU H 303     -30.796 -24.602  -2.909  0.00  0.00    +0.000 C 
ATOM     30  CD  GLU H 303     -31.989 -23.678  -2.826  0.00  0.00    +0.000 C 
ATOM     31  OE1 GLU H 303     -32.797 -23.816  -1.884  0.00  0.00    +0.000 OA
ATOM     32  OE2 GLU H 303     -32.119 -22.810  -3.714  0.00  0.00    +0.000 OA
ATOM     33  N   GLU H 304     -28.176 -25.844  -3.690  0.00  0.00    +0.000 N 
ATOM     34  CA  GLU H 304     -27.051 -25.236  -4.389  0.00  0.00    +0.000 C 
ATOM     35  C   GLU H 304     -26.882 -23.763  -4.044  0.00  0.00    +0.000 C 
ATOM     36  O   GLU H 304     -27.850 -23.004  -4.053  0.00  0.00    +0.000 OA
ATOM     37  CB  GLU H 304     -27.253 -25.369  -5.906  0.00  0.00    +0.000 C 
ATOM     38  CG  GLU H 304     -28.668 -25.829  -6.310  0.00  0.00    +0.000 C 
ATOM     39  CD  GLU H 304     -29.252 -25.044  -7.483  0.00  0.00    +0.000 C 
ATOM     40  OE1 GLU H 304     -28.484 -24.343  -8.182  0.00  0.00    +0.000 OA
ATOM     41  OE2 GLU H 304     -30.484 -25.133  -7.704  0.00  0.00    +0.000 OA
ATOM     42  N   ILE H 305     -25.654 -23.360  -3.737  0.00  0.00    +0.000 N 
ATOM     43  CA  ILE H 305     -25.383 -21.961  -3.438  0.00  0.00    +0.000 C 
ATOM     44  C   ILE H 305     -24.585 -21.407  -4.612  0.00  0.00    +0.000 C 
ATOM     45  O   ILE H 305     -23.853 -22.144  -5.271  0.00  0.00    +0.000 OA
ATOM     46  CB  ILE H 305     -24.563 -21.777  -2.128  0.00  0.00    +0.000 C 
ATOM     47  CG1 ILE H 305     -23.163 -22.372  -2.283  0.00  0.00    +0.000 C 
ATOM     48  CG2 ILE H 305     -25.295 -22.415  -0.962  0.00  0.00    +0.000 C 
ATOM     49  CD1 ILE H 305     -22.251 -22.080  -1.119  0.00  0.00    +0.000 C 
ATOM     50  N   PRO H 306     -24.736 -20.104  -4.906  0.00  0.00    +0.000 N 
ATOM     51  CA  PRO H 306     -24.011 -19.478  -6.018  0.00  0.00    +0.000 C 
ATOM     52  C   PRO H 306     -22.545 -19.894  -6.101  0.00  0.00    +0.000 C 
ATOM     53  O   PRO H 306     -21.868 -20.056  -5.083  0.00  0.00    +0.000 OA
ATOM     54  CB  PRO H 306     -24.180 -17.986  -5.758  0.00  0.00    +0.000 C 
ATOM     55  CG  PRO H 306     -25.491 -17.892  -5.052  0.00  0.00    +0.000 C 
ATOM     56  CD  PRO H 306     -25.622 -19.145  -4.219  0.00  0.00    +0.000 C 
ATOM     57  N   GLU H 307     -22.070 -20.065  -7.330  0.00  0.00    +0.000 N 
ATOM     58  CA  GLU H 307     -20.701 -20.480  -7.604  0.00  0.00    +0.000 C 
ATOM     59  C   GLU H 307     -19.665 -19.455  -7.150  0.00  0.00    +0.000 C 
ATOM     60  O   GLU H 307     -18.524 -19.806  -6.859  0.00  0.00    +0.000 OA
ATOM     61  CB  GLU H 307     -20.546 -20.752  -9.105  0.00  0.00    +0.000 C 
ATOM     62  CG  GLU H 307     -19.190 -21.307  -9.515  0.00  0.00    +0.000 C 
ATOM     63  CD  GLU H 307     -18.863 -22.630  -8.841  0.00  0.00    +0.000 C 
ATOM     64  OE1 GLU H 307     -17.661 -22.914  -8.633  0.00  0.00    +0.000 OA
ATOM     65  OE2 GLU H 307     -19.808 -23.386  -8.518  0.00  0.00    +0.000 OA
ATOM     66  N   GLU H 308     -20.063 -18.190  -7.094  0.00  0.00    +0.000 N 
ATOM     67  CA  GLU H 308     -19.159 -17.125  -6.672  0.00  0.00    +0.000 C 
ATOM     68  C   GLU H 308     -18.575 -17.406  -5.290  0.00  0.00    +0.000 C 
ATOM     69  O   GLU H 308     -17.457 -16.996  -4.987  0.00  0.00    +0.000 OA
ATOM     70  CB  GLU H 308     -19.895 -15.781  -6.637  0.00  0.00    +0.000 C 
ATOM     71  CG  GLU H 308     -21.392 -15.878  -6.871  0.00  0.00    +0.000 C 
ATOM     72  CD  GLU H 308     -21.728 -16.343  -8.279  0.00  0.00    +0.000 C 
ATOM     73  OE1 GLU H 308     -20.860 -16.214  -9.172  0.00  0.00    +0.000 OA
ATOM     74  OE2 GLU H 308     -22.856 -16.837  -8.495  0.00  0.00    +0.000 OA
ATOM     75  N   TYS H 309     -19.334 -18.107  -4.457  0.00  0.00    +0.000 N 
ATOM     76  CA  TYS H 309     -18.894 -18.421  -3.101  0.00  0.00    +0.000 C 
ATOM     77  CB  TYS H 309     -20.103 -18.564  -2.175  0.00  0.00    +0.000 C 
ATOM     78  CG  TYS H 309     -20.959 -17.355  -2.186  0.00  0.00    +0.000 A 
ATOM     79  CD1 TYS H 309     -22.400 -17.535  -2.585  0.00  0.00    +0.000 A 
ATOM     80  CD2 TYS H 309     -20.428 -15.976  -1.844  0.00  0.00    +0.000 A 
ATOM     81  CE1 TYS H 309     -23.307 -16.322  -2.673  0.00  0.00    +0.000 A 
ATOM     82  CE2 TYS H 309     -21.334 -14.766  -1.932  0.00  0.00    +0.000 A 
ATOM     83  CZ  TYS H 309     -22.780 -14.949  -2.302  0.00  0.00    +0.000 A 
ATOM     84  OH  TYS H 309     -23.638 -13.890  -2.174  0.00  0.00    +0.000 OA
ATOM     85  S   TYS H 309     -24.495 -13.830  -0.924  0.00  0.00    +0.000 S 
ATOM     86  O1  TYS H 309     -23.546 -13.440   0.222  0.00  0.00    +0.000 OA
ATOM     87  O2  TYS H 309     -25.544 -12.711  -1.126  0.00  0.00    +0.000 OA
ATOM     88  O3  TYS H 309     -25.251 -15.155  -0.670  0.00  0.00    +0.000 OA
ATOM     89  C   TYS H 309     -18.054 -19.682  -2.986  0.00  0.00    +0.000 C 
ATOM     90  O   TYS H 309     -17.588 -20.021  -1.898  0.00  0.00    +0.000 OA
ATOM     91  N   LEU H 310     -17.858 -20.383  -4.095  0.00  0.00    +0.000 N 
ATOM     92  CA  LEU H 310     -17.085 -21.615  -4.056  0.00  0.00    +0.000 C 
ATOM     93  C   LEU H 310     -15.707 -21.490  -4.692  0.00  0.00    +0.000 C 
ATOM     94  O   LEU H 310     -15.009 -22.485  -4.865  0.00  0.00    +0.000 OA
ATOM     95  CB  LEU H 310     -17.877 -22.736  -4.728  0.00  0.00    +0.000 C 
ATOM     96  CG  LEU H 310     -18.959 -23.356  -3.843  0.00  0.00    +0.000 C 
ATOM     97  CD1 LEU H 310     -20.201 -23.651  -4.664  0.00  0.00    +0.000 C 
ATOM     98  CD2 LEU H 310     -18.423 -24.623  -3.204  0.00  0.00    +0.000 C 
ATOM     99  N   GLN H 311     -15.313 -20.269  -5.034  0.00  0.00    +0.000 N 
ATOM    100  CA  GLN H 311     -14.011 -20.040  -5.649  0.00  0.00    +0.000 C 
ATOM    101  C   GLN H 311     -13.181 -19.071  -4.810  0.00  0.00    +0.000 C 
ATOM    102  O   GLN H 311     -13.747 -18.493  -3.859  0.00  0.00    +0.000 OA
ATOM    103  CB  GLN H 311     -14.195 -19.506  -7.079  0.00  0.00    +0.000 C 
ATOM    104  CG  GLN H 311     -13.510 -18.180  -7.380  0.00  0.00    +0.000 C 
ATOM    105  CD  GLN H 311     -14.450 -16.993  -7.262  0.00  0.00    +0.000 C 
ATOM    106  OE1 GLN H 311     -15.020 -16.539  -8.255  0.00  0.00    +0.000 OA
ATOM    107  NE2 GLN H 311     -14.617 -16.484  -6.042  0.00  0.00    +0.000 N 
ATOM    108  OXT GLN H 311     -11.978 -18.906  -5.104  0.00  0.00    +0.000 OA
ATOM    109  H   GLY H 300     -33.696 -34.059   4.847  0.00  0.00    +0.000 HD
ATOM    110  H   GLY H 300     -33.002 -32.545   4.813  0.00  0.00    +0.000 HD
ATOM    111  H   ASP H 301     -31.032 -33.587   1.164  0.00  0.00    +0.000 HD
ATOM    112  H   ASP H 301     -31.013 -32.037   0.020  0.00  0.00    +0.000 HD
ATOM    113  H   PHE H 302     -27.522 -30.680   1.096  0.00  0.00    +0.000 HD
ATOM    114  H   GLU H 303     -29.542 -26.636   0.279  0.00  0.00    +0.000 HD
ATOM    115  H   GLU H 303     -32.657 -24.483  -1.241  0.00  0.00    +0.000 HD
ATOM    116  H   GLU H 304     -28.883 -26.271  -4.226  0.00  0.00    +0.000 HD
ATOM    117  H   GLU H 304     -31.021 -25.670  -7.155  0.00  0.00    +0.000 HD
ATOM    118  H   ILE H 305     -24.919 -24.015  -3.711  0.00  0.00    +0.000 HD
ATOM    119  H   GLU H 307     -22.672 -19.903  -8.092  0.00  0.00    +0.000 HD
ATOM    120  H   GLU H 307     -20.693 -23.132  -8.694  0.00  0.00    +0.000 HD
ATOM    121  H   GLU H 308     -20.989 -17.965  -7.343  0.00  0.00    +0.000 HD
ATOM    122  H   GLU H 308     -23.475 -16.914  -7.796  0.00  0.00    +0.000 HD
ATOM    123  H   TYS H 309     -20.215 -18.423  -4.761  0.00  0.00    +0.000 HD
ATOM    124  H   TYS H 309     -23.103 -12.605   0.005  0.00  0.00    +0.000 HD
ATOM    125  H   TYS H 309     -26.143 -12.956  -1.849  0.00  0.00    +0.000 HD
ATOM    126  H   TYS H 309     -25.831 -15.346  -1.424  0.00  0.00    +0.000 HD
ATOM    127  H   LEU H 310     -18.237 -20.068  -4.947  0.00  0.00    +0.000 HD
ATOM    128  H   GLN H 311     -15.911 -19.504  -4.869  0.00  0.00    +0.000 HD
ATOM    129  H   GLN H 311     -14.653 -18.655  -3.685  0.00  0.00    +0.000 HD
ATOM    130  H   GLN H 311     -15.215 -15.714  -5.908  0.00  0.00    +0.000 HD
ATOM    131  H   GLN H 311     -14.142 -16.878  -5.275  0.00  0.00    +0.000 HD
TER 
