MODEL 1
REMARK VINA RESULT:   -11.423      0.000      0.000
REMARK INTER + INTRA:         -14.079
REMARK INTER:                 -13.426
REMARK INTRA:                  -0.653
REMARK UNBOUND:                -0.653
REMARK SMILES CC(=O)N[C@H](c1ccccc1)c1c([O-])c2ccccc2oc1=O
REMARK SMILES IDX 5 1 4 2 2 3 3 4 1 5 6 7 7 8 11 9 8 10 10 11 9 12 12 13 13 14
REMARK SMILES IDX 22 15 15 16 21 17 23 18 16 19 20 20 17 21 19 22 18 23 14 24
REMARK H PARENT 4 6
ROOT
ATOM      1  C   UNL     1      -9.358  25.976  56.904  1.00  0.00     0.149 C 
ENDROOT
BRANCH   1   2
ATOM      2  N   UNL     1      -9.032  27.020  57.859  1.00  0.00    -0.345 N 
ATOM      3  C   UNL     1      -9.080  26.899  59.213  1.00  0.00     0.217 C 
ATOM      4  O   UNL     1      -9.428  25.888  59.817  1.00  0.00    -0.275 OA
ATOM      5  C   UNL     1      -8.696  28.161  59.934  1.00  0.00     0.114 C 
ATOM      6  H   UNL     1      -8.802  27.912  57.402  1.00  0.00     0.164 HD
ENDBRANCH   1   2
BRANCH   1   7
ATOM      7  C   UNL     1      -8.078  25.455  56.248  1.00  0.00    -0.021 A 
ATOM      8  C   UNL     1      -7.854  24.075  56.129  1.00  0.00     0.006 A 
ATOM      9  C   UNL     1      -7.098  26.338  55.762  1.00  0.00     0.006 A 
ATOM     10  C   UNL     1      -6.688  23.590  55.534  1.00  0.00     0.000 A 
ATOM     11  C   UNL     1      -5.932  25.852  55.166  1.00  0.00     0.000 A 
ATOM     12  C   UNL     1      -5.728  24.479  55.052  1.00  0.00     0.000 A 
ENDBRANCH   1   7
BRANCH   1  13
ATOM     13  C   UNL     1     -10.387  26.476  55.874  1.00  0.00     0.057 A 
ATOM     14  C   UNL     1     -10.236  27.573  55.071  1.00  0.00    -0.085 A 
ATOM     15  C   UNL     1     -11.600  25.609  55.882  1.00  0.00     0.341 A 
ATOM     16  C   UNL     1     -11.393  27.822  54.147  1.00  0.00     0.010 A 
ATOM     17  O   UNL     1     -12.597  25.875  54.964  1.00  0.00    -0.423 OA
ATOM     18  O   UNL     1     -11.748  24.678  56.673  1.00  0.00    -0.246 OA
ATOM     19  C   UNL     1     -11.412  28.913  53.255  1.00  0.00     0.011 A 
ATOM     20  C   UNL     1     -12.498  26.981  54.120  1.00  0.00     0.137 A 
ATOM     21  C   UNL     1     -12.487  29.140  52.387  1.00  0.00     0.001 A 
ATOM     22  C   UNL     1     -13.583  27.189  53.259  1.00  0.00     0.048 A 
ATOM     23  C   UNL     1     -13.575  28.274  52.388  1.00  0.00     0.004 A 
ATOM     24  O   UNL     1      -9.231  28.353  55.037  1.00  0.00    -0.872 OA
ENDBRANCH   1  13
TORSDOF 3
ENDMDL
MODEL 2
REMARK VINA RESULT:   -10.573      2.674      6.642
REMARK INTER + INTRA:         -13.081
REMARK INTER:                 -12.149
REMARK INTRA:                  -0.931
REMARK UNBOUND:                -0.653
REMARK SMILES CC(=O)N[C@H](c1ccccc1)c1c([O-])c2ccccc2oc1=O
REMARK SMILES IDX 5 1 4 2 2 3 3 4 1 5 6 7 7 8 11 9 8 10 10 11 9 12 12 13 13 14
REMARK SMILES IDX 22 15 15 16 21 17 23 18 16 19 20 20 17 21 19 22 18 23 14 24
REMARK H PARENT 4 6
ROOT
ATOM      1  C   UNL     1      -7.504  26.041  57.383  1.00  0.00     0.149 C 
ENDROOT
BRANCH   1   2
ATOM      2  N   UNL     1      -7.805  25.790  58.781  1.00  0.00    -0.345 N 
ATOM      3  C   UNL     1      -8.018  26.743  59.728  1.00  0.00     0.217 C 
ATOM      4  O   UNL     1      -7.966  27.954  59.533  1.00  0.00    -0.275 OA
ATOM      5  C   UNL     1      -8.295  26.170  61.091  1.00  0.00     0.114 C 
ATOM      6  H   UNL     1      -7.789  24.788  59.013  1.00  0.00     0.164 HD
ENDBRANCH   1   2
BRANCH   1   7
ATOM      7  C   UNL     1      -8.804  26.261  56.606  1.00  0.00    -0.021 A 
ATOM      8  C   UNL     1      -8.948  27.381  55.772  1.00  0.00     0.006 A 
ATOM      9  C   UNL     1      -9.878  25.363  56.714  1.00  0.00     0.006 A 
ATOM     10  C   UNL     1     -10.130  27.592  55.060  1.00  0.00     0.000 A 
ATOM     11  C   UNL     1     -11.060  25.575  56.001  1.00  0.00     0.000 A 
ATOM     12  C   UNL     1     -11.185  26.688  55.174  1.00  0.00     0.000 A 
ENDBRANCH   1   7
BRANCH   1  13
ATOM     13  C   UNL     1      -6.650  24.904  56.792  1.00  0.00     0.057 A 
ATOM     14  C   UNL     1      -6.651  23.605  57.223  1.00  0.00    -0.085 A 
ATOM     15  C   UNL     1      -5.790  25.416  55.688  1.00  0.00     0.341 A 
ATOM     16  C   UNL     1      -5.728  22.703  56.456  1.00  0.00     0.010 A 
ATOM     17  O   UNL     1      -5.008  24.510  54.997  1.00  0.00    -0.423 OA
ATOM     18  O   UNL     1      -5.744  26.605  55.374  1.00  0.00    -0.246 OA
ATOM     19  C   UNL     1      -5.595  21.336  56.769  1.00  0.00     0.011 A 
ATOM     20  C   UNL     1      -4.968  23.172  55.393  1.00  0.00     0.137 A 
ATOM     21  C   UNL     1      -4.742  20.492  56.046  1.00  0.00     0.001 A 
ATOM     22  C   UNL     1      -4.110  22.346  54.657  1.00  0.00     0.048 A 
ATOM     23  C   UNL     1      -3.998  20.999  54.986  1.00  0.00     0.004 A 
ATOM     24  O   UNL     1      -7.351  23.123  58.170  1.00  0.00    -0.872 OA
ENDBRANCH   1  13
TORSDOF 3
ENDMDL
MODEL 3
REMARK VINA RESULT:   -10.548      2.677      6.560
REMARK INTER + INTRA:         -13.051
REMARK INTER:                 -12.122
REMARK INTRA:                  -0.929
REMARK UNBOUND:                -0.653
REMARK SMILES CC(=O)N[C@H](c1ccccc1)c1c([O-])c2ccccc2oc1=O
REMARK SMILES IDX 5 1 4 2 2 3 3 4 1 5 6 7 7 8 11 9 8 10 10 11 9 12 12 13 13 14
REMARK SMILES IDX 22 15 15 16 21 17 23 18 16 19 20 20 17 21 19 22 18 23 14 24
REMARK H PARENT 4 6
ROOT
ATOM      1  C   UNL     1      -7.552  26.022  57.408  1.00  0.00     0.149 C 
ENDROOT
BRANCH   1   2
ATOM      2  N   UNL     1      -7.827  25.765  58.810  1.00  0.00    -0.345 N 
ATOM      3  C   UNL     1      -8.023  26.713  59.766  1.00  0.00     0.217 C 
ATOM      4  O   UNL     1      -7.975  27.925  59.576  1.00  0.00    -0.275 OA
ATOM      5  C   UNL     1      -8.276  26.134  61.131  1.00  0.00     0.114 C 
ATOM      6  H   UNL     1      -7.807  24.762  59.037  1.00  0.00     0.164 HD
ENDBRANCH   1   2
BRANCH   1   7
ATOM      7  C   UNL     1      -8.866  26.215  56.649  1.00  0.00    -0.021 A 
ATOM      8  C   UNL     1      -9.916  25.297  56.808  1.00  0.00     0.006 A 
ATOM      9  C   UNL     1      -9.050  27.300  55.775  1.00  0.00     0.006 A 
ATOM     10  C   UNL     1     -11.118  25.463  56.117  1.00  0.00     0.000 A 
ATOM     11  C   UNL     1     -10.253  27.465  55.086  1.00  0.00     0.000 A 
ATOM     12  C   UNL     1     -11.287  26.547  55.258  1.00  0.00     0.000 A 
ENDBRANCH   1   7
BRANCH   1  13
ATOM     13  C   UNL     1      -6.682  24.905  56.805  1.00  0.00     0.057 A 
ATOM     14  C   UNL     1      -6.651  23.606  57.233  1.00  0.00    -0.085 A 
ATOM     15  C   UNL     1      -5.844  25.436  55.692  1.00  0.00     0.341 A 
ATOM     16  C   UNL     1      -5.719  22.724  56.453  1.00  0.00     0.010 A 
ATOM     17  O   UNL     1      -5.052  24.548  54.990  1.00  0.00    -0.423 OA
ATOM     18  O   UNL     1      -5.827  26.627  55.381  1.00  0.00    -0.246 OA
ATOM     19  C   UNL     1      -5.554  21.359  56.760  1.00  0.00     0.011 A 
ATOM     20  C   UNL     1      -4.981  23.211  55.382  1.00  0.00     0.137 A 
ATOM     21  C   UNL     1      -4.693  20.534  56.026  1.00  0.00     0.001 A 
ATOM     22  C   UNL     1      -4.115  22.403  54.634  1.00  0.00     0.048 A 
ATOM     23  C   UNL     1      -3.971  21.058  54.959  1.00  0.00     0.004 A 
ATOM     24  O   UNL     1      -7.330  23.107  58.186  1.00  0.00    -0.872 OA
ENDBRANCH   1  13
TORSDOF 3
ENDMDL
MODEL 4
REMARK VINA RESULT:   -10.351      0.952      1.188
REMARK INTER + INTRA:         -12.820
REMARK INTER:                 -12.045
REMARK INTRA:                  -0.775
REMARK UNBOUND:                -0.653
REMARK SMILES CC(=O)N[C@H](c1ccccc1)c1c([O-])c2ccccc2oc1=O
REMARK SMILES IDX 5 1 4 2 2 3 3 4 1 5 6 7 7 8 11 9 8 10 10 11 9 12 12 13 13 14
REMARK SMILES IDX 22 15 15 16 21 17 23 18 16 19 20 20 17 21 19 22 18 23 14 24
REMARK H PARENT 4 6
ROOT
ATOM      1  C   UNL     1      -9.613  25.514  57.654  1.00  0.00     0.149 C 
ENDROOT
BRANCH   1   2
ATOM      2  N   UNL     1      -9.067  26.573  58.484  1.00  0.00    -0.345 N 
ATOM      3  C   UNL     1      -8.973  26.547  59.840  1.00  0.00     0.217 C 
ATOM      4  O   UNL     1      -9.357  25.625  60.555  1.00  0.00    -0.275 OA
ATOM      5  C   UNL     1      -8.373  27.800  60.416  1.00  0.00     0.114 C 
ATOM      6  H   UNL     1      -8.796  27.400  57.937  1.00  0.00     0.164 HD
ENDBRANCH   1   2
BRANCH   1   7
ATOM      7  C   UNL     1      -8.484  24.603  57.168  1.00  0.00    -0.021 A 
ATOM      8  C   UNL     1      -7.876  23.697  58.052  1.00  0.00     0.006 A 
ATOM      9  C   UNL     1      -8.024  24.656  55.842  1.00  0.00     0.006 A 
ATOM     10  C   UNL     1      -6.844  22.862  57.619  1.00  0.00     0.000 A 
ATOM     11  C   UNL     1      -6.992  23.821  55.410  1.00  0.00     0.000 A 
ATOM     12  C   UNL     1      -6.403  22.924  56.298  1.00  0.00     0.000 A 
ENDBRANCH   1   7
BRANCH   1  13
ATOM     13  C   UNL     1     -10.440  26.096  56.493  1.00  0.00     0.057 A 
ATOM     14  C   UNL     1     -10.091  27.183  55.738  1.00  0.00    -0.085 A 
ATOM     15  C   UNL     1     -11.703  25.326  56.312  1.00  0.00     0.341 A 
ATOM     16  C   UNL     1     -11.079  27.525  54.661  1.00  0.00     0.010 A 
ATOM     17  O   UNL     1     -12.533  25.672  55.263  1.00  0.00    -0.423 OA
ATOM     18  O   UNL     1     -12.035  24.406  57.058  1.00  0.00    -0.246 OA
ATOM     19  C   UNL     1     -10.885  28.618  53.793  1.00  0.00     0.011 A 
ATOM     20  C   UNL     1     -12.229  26.772  54.460  1.00  0.00     0.137 A 
ATOM     21  C   UNL     1     -11.802  28.931  52.781  1.00  0.00     0.001 A 
ATOM     22  C   UNL     1     -13.157  27.067  53.454  1.00  0.00     0.048 A 
ATOM     23  C   UNL     1     -12.941  28.152  52.611  1.00  0.00     0.004 A 
ATOM     24  O   UNL     1      -9.036  27.883  55.863  1.00  0.00    -0.872 OA
ENDBRANCH   1  13
TORSDOF 3
ENDMDL
MODEL 5
REMARK VINA RESULT:   -10.344      1.763      3.674
REMARK INTER + INTRA:         -12.811
REMARK INTER:                 -12.280
REMARK INTRA:                  -0.531
REMARK UNBOUND:                -0.653
REMARK SMILES CC(=O)N[C@H](c1ccccc1)c1c([O-])c2ccccc2oc1=O
REMARK SMILES IDX 5 1 4 2 2 3 3 4 1 5 6 7 7 8 11 9 8 10 10 11 9 12 12 13 13 14
REMARK SMILES IDX 22 15 15 16 21 17 23 18 16 19 20 20 17 21 19 22 18 23 14 24
REMARK H PARENT 4 6
ROOT
ATOM      1  C   UNL     1      -7.609  26.227  57.108  1.00  0.00     0.149 C 
ENDROOT
BRANCH   1   2
ATOM      2  N   UNL     1      -6.931  25.013  56.693  1.00  0.00    -0.345 N 
ATOM      3  C   UNL     1      -6.008  24.921  55.698  1.00  0.00     0.217 C 
ATOM      4  O   UNL     1      -5.633  25.857  54.997  1.00  0.00    -0.275 OA
ATOM      5  C   UNL     1      -5.493  23.523  55.495  1.00  0.00     0.114 C 
ATOM      6  H   UNL     1      -7.263  24.184  57.203  1.00  0.00     0.164 HD
ENDBRANCH   1   2
BRANCH   1   7
ATOM      7  C   UNL     1      -7.858  26.192  58.617  1.00  0.00    -0.021 A 
ATOM      8  C   UNL     1      -7.240  25.215  59.413  1.00  0.00     0.006 A 
ATOM      9  C   UNL     1      -8.711  27.121  59.236  1.00  0.00     0.006 A 
ATOM     10  C   UNL     1      -7.462  25.173  60.791  1.00  0.00     0.000 A 
ATOM     11  C   UNL     1      -8.932  27.078  60.614  1.00  0.00     0.000 A 
ATOM     12  C   UNL     1      -8.307  26.105  61.391  1.00  0.00     0.000 A 
ENDBRANCH   1   7
BRANCH   1  13
ATOM     13  C   UNL     1      -8.905  26.436  56.302  1.00  0.00     0.057 A 
ATOM     14  C   UNL     1      -9.189  27.528  55.528  1.00  0.00    -0.085 A 
ATOM     15  C   UNL     1      -9.834  25.287  56.499  1.00  0.00     0.341 A 
ATOM     16  C   UNL     1     -10.523  27.462  54.842  1.00  0.00     0.010 A 
ATOM     17  O   UNL     1     -11.019  25.279  55.789  1.00  0.00    -0.423 OA
ATOM     18  O   UNL     1      -9.591  24.357  57.267  1.00  0.00    -0.246 OA
ATOM     19  C   UNL     1     -10.985  28.503  54.012  1.00  0.00     0.011 A 
ATOM     20  C   UNL     1     -11.363  26.365  54.985  1.00  0.00     0.137 A 
ATOM     21  C   UNL     1     -12.224  28.437  53.363  1.00  0.00     0.001 A 
ATOM     22  C   UNL     1     -12.606  26.279  54.344  1.00  0.00     0.048 A 
ATOM     23  C   UNL     1     -13.037  27.321  53.529  1.00  0.00     0.004 A 
ATOM     24  O   UNL     1      -8.441  28.539  55.342  1.00  0.00    -0.872 OA
ENDBRANCH   1  13
TORSDOF 3
ENDMDL
MODEL 6
REMARK VINA RESULT:   -10.238      1.081      2.307
REMARK INTER + INTRA:         -12.687
REMARK INTER:                 -12.415
REMARK INTRA:                  -0.271
REMARK UNBOUND:                -0.653
REMARK SMILES CC(=O)N[C@H](c1ccccc1)c1c([O-])c2ccccc2oc1=O
REMARK SMILES IDX 5 1 4 2 2 3 3 4 1 5 6 7 7 8 11 9 8 10 10 11 9 12 12 13 13 14
REMARK SMILES IDX 22 15 15 16 21 17 23 18 16 19 20 20 17 21 19 22 18 23 14 24
REMARK H PARENT 4 6
ROOT
ATOM      1  C   UNL     1      -9.465  25.662  57.459  1.00  0.00     0.149 C 
ENDROOT
BRANCH   1   2
ATOM      2  N   UNL     1      -9.077  26.591  58.505  1.00  0.00    -0.345 N 
ATOM      3  C   UNL     1      -9.142  26.350  59.842  1.00  0.00     0.217 C 
ATOM      4  O   UNL     1      -9.559  25.313  60.351  1.00  0.00    -0.275 OA
ATOM      5  C   UNL     1      -8.680  27.513  60.676  1.00  0.00     0.114 C 
ATOM      6  H   UNL     1      -8.787  27.504  58.132  1.00  0.00     0.164 HD
ENDBRANCH   1   2
BRANCH   1   7
ATOM      7  C   UNL     1      -8.252  24.839  57.021  1.00  0.00    -0.021 A 
ATOM      8  C   UNL     1      -7.139  24.714  57.867  1.00  0.00     0.006 A 
ATOM      9  C   UNL     1      -8.217  24.202  55.769  1.00  0.00     0.006 A 
ATOM     10  C   UNL     1      -6.026  23.967  57.476  1.00  0.00     0.000 A 
ATOM     11  C   UNL     1      -7.104  23.455  55.379  1.00  0.00     0.000 A 
ATOM     12  C   UNL     1      -6.010  23.337  56.233  1.00  0.00     0.000 A 
ENDBRANCH   1   7
BRANCH   1  13
ATOM     13  C   UNL     1     -10.128  26.403  56.284  1.00  0.00     0.057 A 
ATOM     14  C   UNL     1     -11.337  26.085  55.727  1.00  0.00    -0.085 A 
ATOM     15  C   UNL     1      -9.257  27.515  55.807  1.00  0.00     0.341 A 
ATOM     16  C   UNL     1     -11.750  26.986  54.599  1.00  0.00     0.010 A 
ATOM     17  O   UNL     1      -9.734  28.331  54.800  1.00  0.00    -0.423 OA
ATOM     18  O   UNL     1      -8.137  27.728  56.268  1.00  0.00    -0.246 OA
ATOM     19  C   UNL     1     -12.962  26.801  53.904  1.00  0.00     0.011 A 
ATOM     20  C   UNL     1     -10.960  28.054  54.194  1.00  0.00     0.137 A 
ATOM     21  C   UNL     1     -13.352  27.648  52.859  1.00  0.00     0.001 A 
ATOM     22  C   UNL     1     -11.332  28.914  53.152  1.00  0.00     0.048 A 
ATOM     23  C   UNL     1     -12.534  28.709  52.483  1.00  0.00     0.004 A 
ATOM     24  O   UNL     1     -12.109  25.138  56.084  1.00  0.00    -0.872 OA
ENDBRANCH   1  13
TORSDOF 3
ENDMDL
MODEL 7
REMARK VINA RESULT:   -10.199      1.940      4.257
REMARK INTER + INTRA:         -12.642
REMARK INTER:                 -11.613
REMARK INTRA:                  -1.029
REMARK UNBOUND:                -0.653
REMARK SMILES CC(=O)N[C@H](c1ccccc1)c1c([O-])c2ccccc2oc1=O
REMARK SMILES IDX 5 1 4 2 2 3 3 4 1 5 6 7 7 8 11 9 8 10 10 11 9 12 12 13 13 14
REMARK SMILES IDX 22 15 15 16 21 17 23 18 16 19 20 20 17 21 19 22 18 23 14 24
REMARK H PARENT 4 6
ROOT
ATOM      1  C   UNL     1      -7.654  25.725  57.273  1.00  0.00     0.149 C 
ENDROOT
BRANCH   1   2
ATOM      2  N   UNL     1      -7.477  24.310  57.001  1.00  0.00    -0.345 N 
ATOM      3  C   UNL     1      -6.419  23.755  56.349  1.00  0.00     0.217 C 
ATOM      4  O   UNL     1      -5.472  24.382  55.881  1.00  0.00    -0.275 OA
ATOM      5  C   UNL     1      -6.527  22.261  56.211  1.00  0.00     0.114 C 
ATOM      6  H   UNL     1      -8.279  23.747  57.310  1.00  0.00     0.164 HD
ENDBRANCH   1   2
BRANCH   1   7
ATOM      7  C   UNL     1      -7.955  25.933  58.758  1.00  0.00    -0.021 A 
ATOM      8  C   UNL     1      -7.344  25.119  59.725  1.00  0.00     0.006 A 
ATOM      9  C   UNL     1      -8.849  26.928  59.187  1.00  0.00     0.006 A 
ATOM     10  C   UNL     1      -7.614  25.300  61.083  1.00  0.00     0.000 A 
ATOM     11  C   UNL     1      -9.119  27.108  60.545  1.00  0.00     0.000 A 
ATOM     12  C   UNL     1      -8.500  26.295  61.493  1.00  0.00     0.000 A 
ENDBRANCH   1   7
BRANCH   1  13
ATOM     13  C   UNL     1      -8.738  26.328  56.362  1.00  0.00     0.057 A 
ATOM     14  C   UNL     1      -9.947  25.753  56.081  1.00  0.00    -0.085 A 
ATOM     15  C   UNL     1      -8.282  27.630  55.796  1.00  0.00     0.341 A 
ATOM     16  C   UNL     1     -10.819  26.569  55.171  1.00  0.00     0.010 A 
ATOM     17  O   UNL     1      -9.166  28.344  55.009  1.00  0.00    -0.423 OA
ATOM     18  O   UNL     1      -7.157  28.086  55.995  1.00  0.00    -0.246 OA
ATOM     19  C   UNL     1     -12.096  26.127  54.769  1.00  0.00     0.011 A 
ATOM     20  C   UNL     1     -10.413  27.806  54.689  1.00  0.00     0.137 A 
ATOM     21  C   UNL     1     -12.913  26.892  53.928  1.00  0.00     0.001 A 
ATOM     22  C   UNL     1     -11.215  28.588  53.848  1.00  0.00     0.048 A 
ATOM     23  C   UNL     1     -12.471  28.128  53.468  1.00  0.00     0.004 A 
ATOM     24  O   UNL     1     -10.376  24.639  56.523  1.00  0.00    -0.872 OA
ENDBRANCH   1  13
TORSDOF 3
ENDMDL
MODEL 8
REMARK VINA RESULT:    -9.841      2.765      6.423
REMARK INTER + INTRA:         -12.220
REMARK INTER:                 -12.066
REMARK INTRA:                  -0.154
REMARK UNBOUND:                -0.653
REMARK SMILES CC(=O)N[C@H](c1ccccc1)c1c([O-])c2ccccc2oc1=O
REMARK SMILES IDX 5 1 4 2 2 3 3 4 1 5 6 7 7 8 11 9 8 10 10 11 9 12 12 13 13 14
REMARK SMILES IDX 22 15 15 16 21 17 23 18 16 19 20 20 17 21 19 22 18 23 14 24
REMARK H PARENT 4 6
ROOT
ATOM      1  C   UNL     1      -7.454  25.852  57.691  1.00  0.00     0.149 C 
ENDROOT
BRANCH   1   2
ATOM      2  N   UNL     1      -7.826  25.711  59.087  1.00  0.00    -0.345 N 
ATOM      3  C   UNL     1      -8.046  26.735  59.955  1.00  0.00     0.217 C 
ATOM      4  O   UNL     1      -7.941  27.927  59.679  1.00  0.00    -0.275 OA
ATOM      5  C   UNL     1      -8.404  26.270  61.340  1.00  0.00     0.114 C 
ATOM      6  H   UNL     1      -7.857  24.728  59.388  1.00  0.00     0.164 HD
ENDBRANCH   1   2
BRANCH   1   7
ATOM      7  C   UNL     1      -8.692  26.190  56.857  1.00  0.00    -0.021 A 
ATOM      8  C   UNL     1      -8.679  27.290  55.986  1.00  0.00     0.006 A 
ATOM      9  C   UNL     1      -9.865  25.422  56.951  1.00  0.00     0.006 A 
ATOM     10  C   UNL     1      -9.804  27.609  55.223  1.00  0.00     0.000 A 
ATOM     11  C   UNL     1     -10.990  25.741  56.187  1.00  0.00     0.000 A 
ATOM     12  C   UNL     1     -10.958  26.834  55.323  1.00  0.00     0.000 A 
ENDBRANCH   1   7
BRANCH   1  13
ATOM     13  C   UNL     1      -6.731  24.590  57.185  1.00  0.00     0.057 A 
ATOM     14  C   UNL     1      -5.883  24.540  56.112  1.00  0.00    -0.085 A 
ATOM     15  C   UNL     1      -7.099  23.407  58.013  1.00  0.00     0.341 A 
ATOM     16  C   UNL     1      -5.306  23.179  55.849  1.00  0.00     0.010 A 
ATOM     17  O   UNL     1      -6.482  22.202  57.739  1.00  0.00    -0.423 OA
ATOM     18  O   UNL     1      -7.929  23.461  58.920  1.00  0.00    -0.246 OA
ATOM     19  C   UNL     1      -4.420  22.940  54.780  1.00  0.00     0.011 A 
ATOM     20  C   UNL     1      -5.609  22.090  56.657  1.00  0.00     0.137 A 
ATOM     21  C   UNL     1      -3.873  21.673  54.541  1.00  0.00     0.001 A 
ATOM     22  C   UNL     1      -5.073  20.816  56.437  1.00  0.00     0.048 A 
ATOM     23  C   UNL     1      -4.200  20.608  55.374  1.00  0.00     0.004 A 
ATOM     24  O   UNL     1      -5.551  25.514  55.363  1.00  0.00    -0.872 OA
ENDBRANCH   1  13
TORSDOF 3
ENDMDL
MODEL 9
REMARK VINA RESULT:    -9.339      2.755      6.663
REMARK INTER + INTRA:         -11.630
REMARK INTER:                 -11.105
REMARK INTRA:                  -0.525
REMARK UNBOUND:                -0.653
REMARK SMILES CC(=O)N[C@H](c1ccccc1)c1c([O-])c2ccccc2oc1=O
REMARK SMILES IDX 5 1 4 2 2 3 3 4 1 5 6 7 7 8 11 9 8 10 10 11 9 12 12 13 13 14
REMARK SMILES IDX 22 15 15 16 21 17 23 18 16 19 20 20 17 21 19 22 18 23 14 24
REMARK H PARENT 4 6
ROOT
ATOM      1  C   UNL     1      -9.275  24.982  58.155  1.00  0.00     0.149 C 
ENDROOT
BRANCH   1   2
ATOM      2  N   UNL     1     -10.398  24.062  58.172  1.00  0.00    -0.345 N 
ATOM      3  C   UNL     1     -11.445  24.106  59.040  1.00  0.00     0.217 C 
ATOM      4  O   UNL     1     -11.574  24.925  59.946  1.00  0.00    -0.275 OA
ATOM      5  C   UNL     1     -12.447  23.008  58.814  1.00  0.00     0.114 C 
ATOM      6  H   UNL     1     -10.302  23.311  57.476  1.00  0.00     0.164 HD
ENDBRANCH   1   2
BRANCH   1   7
ATOM      7  C   UNL     1      -9.476  26.024  57.052  1.00  0.00    -0.021 A 
ATOM      8  C   UNL     1     -10.656  26.030  56.292  1.00  0.00     0.006 A 
ATOM      9  C   UNL     1      -8.490  26.983  56.769  1.00  0.00     0.006 A 
ATOM     10  C   UNL     1     -10.848  26.976  55.282  1.00  0.00     0.000 A 
ATOM     11  C   UNL     1      -8.683  27.929  55.760  1.00  0.00     0.000 A 
ATOM     12  C   UNL     1      -9.862  27.925  55.017  1.00  0.00     0.000 A 
ENDBRANCH   1   7
BRANCH   1  13
ATOM     13  C   UNL     1      -7.944  24.222  58.011  1.00  0.00     0.057 A 
ATOM     14  C   UNL     1      -7.435  23.729  56.840  1.00  0.00    -0.085 A 
ATOM     15  C   UNL     1      -7.283  24.067  59.338  1.00  0.00     0.341 A 
ATOM     16  C   UNL     1      -6.109  23.040  56.989  1.00  0.00     0.010 A 
ATOM     17  O   UNL     1      -6.040  23.467  59.381  1.00  0.00    -0.423 OA
ATOM     18  O   UNL     1      -7.802  24.444  60.388  1.00  0.00    -0.246 OA
ATOM     19  C   UNL     1      -5.441  22.466  55.889  1.00  0.00     0.011 A 
ATOM     20  C   UNL     1      -5.471  22.946  58.219  1.00  0.00     0.137 A 
ATOM     21  C   UNL     1      -4.200  21.833  56.026  1.00  0.00     0.001 A 
ATOM     22  C   UNL     1      -4.229  22.318  58.377  1.00  0.00     0.048 A 
ATOM     23  C   UNL     1      -3.592  21.760  57.274  1.00  0.00     0.004 A 
ATOM     24  O   UNL     1      -7.966  23.819  55.687  1.00  0.00    -0.872 OA
ENDBRANCH   1  13
TORSDOF 3
ENDMDL
