REMARK SMILES CC(=O)N[C@@H](c1ccccc1)c1c([O-])c2ccccc2oc1=O
REMARK SMILES IDX 5 1 4 2 2 3 3 4 1 5 6 7 7 8 11 9 8 10 10 11 9 12 12 13 13 14
REMARK SMILES IDX 22 15 15 16 21 17 23 18 16 19 20 20 17 21 19 22 18 23 14 24
REMARK H PARENT 4 6
ROOT
ATOM      1  C   UNL     1      -0.942   0.573   0.870  1.00  0.00     0.149 C 
ENDROOT
BRANCH   1   2
ATOM      2  N   UNL     1      -1.215   1.778   0.106  1.00  0.00    -0.345 N 
ATOM      3  C   UNL     1      -2.170   2.701   0.400  1.00  0.00     0.217 C 
ATOM      4  O   UNL     1      -2.924   2.651   1.368  1.00  0.00    -0.275 OA
ATOM      5  C   UNL     1      -2.203   3.848  -0.573  1.00  0.00     0.114 C 
ATOM      6  H   UNL     1      -0.562   1.903  -0.677  1.00  0.00     0.164 HD
ENDBRANCH   1   2
BRANCH   1   7
ATOM      7  C   UNL     1      -1.927  -0.527   0.472  1.00  0.00    -0.021 A 
ATOM      8  C   UNL     1      -1.938  -1.060  -0.829  1.00  0.00     0.006 A 
ATOM      9  C   UNL     1      -2.853  -1.020   1.405  1.00  0.00     0.006 A 
ATOM     10  C   UNL     1      -2.842  -2.063  -1.182  1.00  0.00     0.000 A 
ATOM     11  C   UNL     1      -3.758  -2.022   1.050  1.00  0.00     0.000 A 
ATOM     12  C   UNL     1      -3.752  -2.544  -0.242  1.00  0.00     0.000 A 
ENDBRANCH   1   7
BRANCH   1  13
ATOM     13  C   UNL     1       0.526   0.139   0.702  1.00  0.00     0.057 A 
ATOM     14  C   UNL     1       1.344   0.494  -0.335  1.00  0.00    -0.085 A 
ATOM     15  C   UNL     1       0.953  -0.713   1.849  1.00  0.00     0.341 A 
ATOM     16  C   UNL     1       2.727  -0.085  -0.251  1.00  0.00     0.010 A 
ATOM     17  O   UNL     1       2.225  -1.250   1.822  1.00  0.00    -0.423 OA
ATOM     18  O   UNL     1       0.224  -0.950   2.812  1.00  0.00    -0.246 OA
ATOM     19  C   UNL     1       3.706   0.182  -1.229  1.00  0.00     0.011 A 
ATOM     20  C   UNL     1       3.105  -0.922   0.791  1.00  0.00     0.137 A 
ATOM     21  C   UNL     1       4.993  -0.367  -1.157  1.00  0.00     0.001 A 
ATOM     22  C   UNL     1       4.386  -1.482   0.881  1.00  0.00     0.048 A 
ATOM     23  C   UNL     1       5.333  -1.202  -0.098  1.00  0.00     0.004 A 
ATOM     24  O   UNL     1       1.035   1.231  -1.324  1.00  0.00    -0.872 OA
ENDBRANCH   1  13
TORSDOF 3
