MODEL 1
REMARK VINA RESULT:   -10.553      0.000      0.000
REMARK INTER + INTRA:         -13.600
REMARK INTER:                 -12.403
REMARK INTRA:                  -1.197
REMARK UNBOUND:                -1.197
REMARK SMILES CC(=O)N[C@@H](c1ccccc1)c1c([O-])c2ccccc2oc1=O
REMARK SMILES IDX 5 1 4 2 2 3 3 4 1 5 6 7 7 8 11 9 8 10 10 11 9 12 12 13 13 14
REMARK SMILES IDX 22 15 15 16 21 17 23 18 16 19 20 20 17 21 19 22 18 23 14 24
REMARK H PARENT 4 6
ROOT
ATOM      1  C   UNL     1      -7.914  26.077  57.586  1.00  0.00     0.149 C 
ENDROOT
BRANCH   1   2
ATOM      2  N   UNL     1      -8.503  25.923  58.905  1.00  0.00    -0.345 N 
ATOM      3  C   UNL     1      -8.483  26.856  59.894  1.00  0.00     0.217 C 
ATOM      4  O   UNL     1      -7.976  27.971  59.801  1.00  0.00    -0.275 OA
ATOM      5  C   UNL     1      -9.189  26.407  61.145  1.00  0.00     0.114 C 
ATOM      6  H   UNL     1      -9.003  25.031  59.010  1.00  0.00     0.164 HD
ENDBRANCH   1   2
BRANCH   1   7
ATOM      7  C   UNL     1      -7.237  24.772  57.165  1.00  0.00    -0.021 A 
ATOM      8  C   UNL     1      -7.088  23.704  58.067  1.00  0.00     0.006 A 
ATOM      9  C   UNL     1      -6.739  24.622  55.861  1.00  0.00     0.006 A 
ATOM     10  C   UNL     1      -6.467  22.518  57.673  1.00  0.00     0.000 A 
ATOM     11  C   UNL     1      -6.116  23.435  55.469  1.00  0.00     0.000 A 
ATOM     12  C   UNL     1      -5.982  22.384  56.373  1.00  0.00     0.000 A 
ENDBRANCH   1   7
BRANCH   1  13
ATOM     13  C   UNL     1      -8.968  26.550  56.568  1.00  0.00     0.057 A 
ATOM     14  C   UNL     1     -10.166  25.938  56.325  1.00  0.00    -0.085 A 
ATOM     15  C   UNL     1      -8.513  27.797  55.887  1.00  0.00     0.341 A 
ATOM     16  C   UNL     1     -10.994  26.610  55.267  1.00  0.00     0.010 A 
ATOM     17  O   UNL     1      -9.310  28.320  54.887  1.00  0.00    -0.423 OA
ATOM     18  O   UNL     1      -7.467  28.375  56.182  1.00  0.00    -0.246 OA
ATOM     19  C   UNL     1     -12.262  26.121  54.893  1.00  0.00     0.011 A 
ATOM     20  C   UNL     1     -10.544  27.740  54.597  1.00  0.00     0.137 A 
ATOM     21  C   UNL     1     -13.030  26.740  53.898  1.00  0.00     0.001 A 
ATOM     22  C   UNL     1     -11.296  28.373  53.598  1.00  0.00     0.048 A 
ATOM     23  C   UNL     1     -12.544  27.870  53.249  1.00  0.00     0.004 A 
ATOM     24  O   UNL     1     -10.608  24.888  56.890  1.00  0.00    -0.872 OA
ENDBRANCH   1  13
TORSDOF 3
ENDMDL
MODEL 2
REMARK VINA RESULT:   -10.336      0.773      2.126
REMARK INTER + INTRA:         -13.345
REMARK INTER:                 -12.935
REMARK INTRA:                  -0.410
REMARK UNBOUND:                -1.197
REMARK SMILES CC(=O)N[C@@H](c1ccccc1)c1c([O-])c2ccccc2oc1=O
REMARK SMILES IDX 5 1 4 2 2 3 3 4 1 5 6 7 7 8 11 9 8 10 10 11 9 12 12 13 13 14
REMARK SMILES IDX 22 15 15 16 21 17 23 18 16 19 20 20 17 21 19 22 18 23 14 24
REMARK H PARENT 4 6
ROOT
ATOM      1  C   UNL     1      -8.451  26.386  57.203  1.00  0.00     0.149 C 
ENDROOT
BRANCH   1   2
ATOM      2  N   UNL     1      -8.907  26.151  58.562  1.00  0.00    -0.345 N 
ATOM      3  C   UNL     1      -8.600  26.919  59.642  1.00  0.00     0.217 C 
ATOM      4  O   UNL     1      -7.907  27.932  59.613  1.00  0.00    -0.275 OA
ATOM      5  C   UNL     1      -9.233  26.427  60.916  1.00  0.00     0.114 C 
ATOM      6  H   UNL     1      -9.550  25.353  58.628  1.00  0.00     0.164 HD
ENDBRANCH   1   2
BRANCH   1   7
ATOM      7  C   UNL     1      -7.550  25.236  56.752  1.00  0.00    -0.021 A 
ATOM      8  C   UNL     1      -7.458  24.047  57.498  1.00  0.00     0.006 A 
ATOM      9  C   UNL     1      -6.784  25.352  55.582  1.00  0.00     0.006 A 
ATOM     10  C   UNL     1      -6.632  23.003  57.078  1.00  0.00     0.000 A 
ATOM     11  C   UNL     1      -5.957  24.308  55.164  1.00  0.00     0.000 A 
ATOM     12  C   UNL     1      -5.882  23.134  55.911  1.00  0.00     0.000 A 
ENDBRANCH   1   7
BRANCH   1  13
ATOM     13  C   UNL     1      -9.645  26.606  56.255  1.00  0.00     0.057 A 
ATOM     14  C   UNL     1      -9.721  27.568  55.286  1.00  0.00    -0.085 A 
ATOM     15  C   UNL     1     -10.715  25.602  56.522  1.00  0.00     0.341 A 
ATOM     16  C   UNL     1     -11.011  27.562  54.516  1.00  0.00     0.010 A 
ATOM     17  O   UNL     1     -11.892  25.700  55.806  1.00  0.00    -0.423 OA
ATOM     18  O   UNL     1     -10.588  24.694  57.344  1.00  0.00    -0.246 OA
ATOM     19  C   UNL     1     -11.259  28.477  53.474  1.00  0.00     0.011 A 
ATOM     20  C   UNL     1     -12.027  26.659  54.803  1.00  0.00     0.137 A 
ATOM     21  C   UNL     1     -12.467  28.480  52.763  1.00  0.00     0.001 A 
ATOM     22  C   UNL     1     -13.242  26.646  54.106  1.00  0.00     0.048 A 
ATOM     23  C   UNL     1     -13.461  27.560  53.081  1.00  0.00     0.004 A 
ATOM     24  O   UNL     1      -8.832  28.433  55.007  1.00  0.00    -0.872 OA
ENDBRANCH   1  13
TORSDOF 3
ENDMDL
MODEL 3
REMARK VINA RESULT:    -9.939      1.811      2.333
REMARK INTER + INTRA:         -12.878
REMARK INTER:                 -12.366
REMARK INTRA:                  -0.512
REMARK UNBOUND:                -1.197
REMARK SMILES CC(=O)N[C@@H](c1ccccc1)c1c([O-])c2ccccc2oc1=O
REMARK SMILES IDX 5 1 4 2 2 3 3 4 1 5 6 7 7 8 11 9 8 10 10 11 9 12 12 13 13 14
REMARK SMILES IDX 22 15 15 16 21 17 23 18 16 19 20 20 17 21 19 22 18 23 14 24
REMARK H PARENT 4 6
ROOT
ATOM      1  C   UNL     1      -9.997  25.731  57.272  1.00  0.00     0.149 C 
ENDROOT
BRANCH   1   2
ATOM      2  N   UNL     1     -10.995  24.788  57.744  1.00  0.00    -0.345 N 
ATOM      3  C   UNL     1     -11.280  24.526  59.048  1.00  0.00     0.217 C 
ATOM      4  O   UNL     1     -10.743  25.068  60.010  1.00  0.00    -0.275 OA
ATOM      5  C   UNL     1     -12.374  23.507  59.221  1.00  0.00     0.114 C 
ATOM      6  H   UNL     1     -11.524  24.358  56.976  1.00  0.00     0.164 HD
ENDBRANCH   1   2
BRANCH   1   7
ATOM      7  C   UNL     1      -8.698  24.992  56.946  1.00  0.00    -0.021 A 
ATOM      8  C   UNL     1      -8.478  24.431  55.676  1.00  0.00     0.006 A 
ATOM      9  C   UNL     1      -7.700  24.850  57.923  1.00  0.00     0.006 A 
ATOM     10  C   UNL     1      -7.289  23.757  55.389  1.00  0.00     0.000 A 
ATOM     11  C   UNL     1      -6.513  24.174  57.636  1.00  0.00     0.000 A 
ATOM     12  C   UNL     1      -6.307  23.629  56.370  1.00  0.00     0.000 A 
ENDBRANCH   1   7
BRANCH   1  13
ATOM     13  C   UNL     1     -10.531  26.540  56.075  1.00  0.00     0.057 A 
ATOM     14  C   UNL     1     -11.688  26.279  55.395  1.00  0.00    -0.085 A 
ATOM     15  C   UNL     1      -9.618  27.678  55.765  1.00  0.00     0.341 A 
ATOM     16  C   UNL     1     -11.958  27.223  54.259  1.00  0.00     0.010 A 
ATOM     17  O   UNL     1      -9.911  28.467  54.670  1.00  0.00    -0.423 OA
ATOM     18  O   UNL     1      -8.626  27.941  56.444  1.00  0.00    -0.246 OA
ATOM     19  C   UNL     1     -13.110  27.110  53.455  1.00  0.00     0.011 A 
ATOM     20  C   UNL     1     -11.079  28.250  53.939  1.00  0.00     0.137 A 
ATOM     21  C   UNL     1     -13.357  27.984  52.388  1.00  0.00     0.001 A 
ATOM     22  C   UNL     1     -11.306  29.133  52.876  1.00  0.00     0.048 A 
ATOM     23  C   UNL     1     -12.451  28.999  52.099  1.00  0.00     0.004 A 
ATOM     24  O   UNL     1     -12.508  25.336  55.631  1.00  0.00    -0.872 OA
ENDBRANCH   1  13
TORSDOF 3
ENDMDL
MODEL 4
REMARK VINA RESULT:    -9.493      1.869      4.270
REMARK INTER + INTRA:         -12.354
REMARK INTER:                 -11.343
REMARK INTRA:                  -1.011
REMARK UNBOUND:                -1.197
REMARK SMILES CC(=O)N[C@@H](c1ccccc1)c1c([O-])c2ccccc2oc1=O
REMARK SMILES IDX 5 1 4 2 2 3 3 4 1 5 6 7 7 8 11 9 8 10 10 11 9 12 12 13 13 14
REMARK SMILES IDX 22 15 15 16 21 17 23 18 16 19 20 20 17 21 19 22 18 23 14 24
REMARK H PARENT 4 6
ROOT
ATOM      1  C   UNL     1      -9.142  25.554  56.722  1.00  0.00     0.149 C 
ENDROOT
BRANCH   1   2
ATOM      2  N   UNL     1      -7.838  25.632  56.087  1.00  0.00    -0.345 N 
ATOM      3  C   UNL     1      -7.049  24.571  55.767  1.00  0.00     0.217 C 
ATOM      4  O   UNL     1      -7.342  23.393  55.955  1.00  0.00    -0.275 OA
ATOM      5  C   UNL     1      -5.758  24.972  55.107  1.00  0.00     0.114 C 
ATOM      6  H   UNL     1      -7.577  26.596  55.844  1.00  0.00     0.164 HD
ENDBRANCH   1   2
BRANCH   1   7
ATOM      7  C   UNL     1      -9.089  26.217  58.099  1.00  0.00    -0.021 A 
ATOM      8  C   UNL     1      -8.663  27.549  58.250  1.00  0.00     0.006 A 
ATOM      9  C   UNL     1      -9.457  25.498  59.246  1.00  0.00     0.006 A 
ATOM     10  C   UNL     1      -8.617  28.144  59.512  1.00  0.00     0.000 A 
ATOM     11  C   UNL     1      -9.409  26.094  60.508  1.00  0.00     0.000 A 
ATOM     12  C   UNL     1      -8.991  27.417  60.640  1.00  0.00     0.000 A 
ENDBRANCH   1   7
BRANCH   1  13
ATOM     13  C   UNL     1     -10.229  26.161  55.816  1.00  0.00     0.057 A 
ATOM     14  C   UNL     1     -10.040  27.183  54.927  1.00  0.00    -0.085 A 
ATOM     15  C   UNL     1     -11.530  25.462  56.021  1.00  0.00     0.341 A 
ATOM     16  C   UNL     1     -11.281  27.586  54.183  1.00  0.00     0.010 A 
ATOM     17  O   UNL     1     -12.635  25.930  55.337  1.00  0.00    -0.423 OA
ATOM     18  O   UNL     1     -11.656  24.491  56.766  1.00  0.00    -0.246 OA
ATOM     19  C   UNL     1     -11.270  28.615  53.220  1.00  0.00     0.011 A 
ATOM     20  C   UNL     1     -12.503  26.968  54.415  1.00  0.00     0.137 A 
ATOM     21  C   UNL     1     -12.430  28.999  52.534  1.00  0.00     0.001 A 
ATOM     22  C   UNL     1     -13.674  27.337  53.740  1.00  0.00     0.048 A 
ATOM     23  C   UNL     1     -13.636  28.357  52.796  1.00  0.00     0.004 A 
ATOM     24  O   UNL     1      -8.950  27.798  54.702  1.00  0.00    -0.872 OA
ENDBRANCH   1  13
TORSDOF 3
ENDMDL
MODEL 5
REMARK VINA RESULT:    -9.337      1.999      5.943
REMARK INTER + INTRA:         -12.171
REMARK INTER:                 -12.119
REMARK INTRA:                  -0.052
REMARK UNBOUND:                -1.197
REMARK SMILES CC(=O)N[C@@H](c1ccccc1)c1c([O-])c2ccccc2oc1=O
REMARK SMILES IDX 5 1 4 2 2 3 3 4 1 5 6 7 7 8 11 9 8 10 10 11 9 12 12 13 13 14
REMARK SMILES IDX 22 15 15 16 21 17 23 18 16 19 20 20 17 21 19 22 18 23 14 24
REMARK H PARENT 4 6
ROOT
ATOM      1  C   UNL     1      -7.832  25.825  57.060  1.00  0.00     0.149 C 
ENDROOT
BRANCH   1   2
ATOM      2  N   UNL     1      -9.165  25.629  56.519  1.00  0.00    -0.345 N 
ATOM      3  C   UNL     1      -9.890  26.562  55.845  1.00  0.00     0.217 C 
ATOM      4  O   UNL     1      -9.506  27.699  55.584  1.00  0.00    -0.275 OA
ATOM      5  C   UNL     1     -11.234  26.056  55.397  1.00  0.00     0.114 C 
ATOM      6  H   UNL     1      -9.505  24.668  56.649  1.00  0.00     0.164 HD
ENDBRANCH   1   2
BRANCH   1   7
ATOM      7  C   UNL     1      -7.898  25.900  58.586  1.00  0.00    -0.021 A 
ATOM      8  C   UNL     1      -6.908  25.306  59.389  1.00  0.00     0.006 A 
ATOM      9  C   UNL     1      -8.965  26.559  59.218  1.00  0.00     0.006 A 
ATOM     10  C   UNL     1      -6.979  25.379  60.781  1.00  0.00     0.000 A 
ATOM     11  C   UNL     1      -9.035  26.630  60.610  1.00  0.00     0.000 A 
ATOM     12  C   UNL     1      -8.043  26.041  61.391  1.00  0.00     0.000 A 
ENDBRANCH   1   7
BRANCH   1  13
ATOM     13  C   UNL     1      -6.872  24.727  56.565  1.00  0.00     0.057 A 
ATOM     14  C   UNL     1      -6.888  23.420  56.968  1.00  0.00    -0.085 A 
ATOM     15  C   UNL     1      -5.925  25.279  55.554  1.00  0.00     0.341 A 
ATOM     16  C   UNL     1      -5.827  22.569  56.330  1.00  0.00     0.010 A 
ATOM     17  O   UNL     1      -4.945  24.442  55.057  1.00  0.00    -0.423 OA
ATOM     18  O   UNL     1      -5.985  26.439  55.147  1.00  0.00    -0.246 OA
ATOM     19  C   UNL     1      -5.700  21.196  56.621  1.00  0.00     0.011 A 
ATOM     20  C   UNL     1      -4.912  23.099  55.429  1.00  0.00     0.137 A 
ATOM     21  C   UNL     1      -4.704  20.405  56.035  1.00  0.00     0.001 A 
ATOM     22  C   UNL     1      -3.908  22.325  54.833  1.00  0.00     0.048 A 
ATOM     23  C   UNL     1      -3.805  20.972  55.138  1.00  0.00     0.004 A 
ATOM     24  O   UNL     1      -7.684  22.897  57.809  1.00  0.00    -0.872 OA
ENDBRANCH   1  13
TORSDOF 3
ENDMDL
MODEL 6
REMARK VINA RESULT:    -9.237      1.458      3.535
REMARK INTER + INTRA:         -12.054
REMARK INTER:                 -11.703
REMARK INTRA:                  -0.351
REMARK UNBOUND:                -1.197
REMARK SMILES CC(=O)N[C@@H](c1ccccc1)c1c([O-])c2ccccc2oc1=O
REMARK SMILES IDX 5 1 4 2 2 3 3 4 1 5 6 7 7 8 11 9 8 10 10 11 9 12 12 13 13 14
REMARK SMILES IDX 22 15 15 16 21 17 23 18 16 19 20 20 17 21 19 22 18 23 14 24
REMARK H PARENT 4 6
ROOT
ATOM      1  C   UNL     1      -8.383  24.939  57.328  1.00  0.00     0.149 C 
ENDROOT
BRANCH   1   2
ATOM      2  N   UNL     1      -7.047  24.759  56.786  1.00  0.00    -0.345 N 
ATOM      3  C   UNL     1      -6.556  23.604  56.261  1.00  0.00     0.217 C 
ATOM      4  O   UNL     1      -7.185  22.555  56.155  1.00  0.00    -0.275 OA
ATOM      5  C   UNL     1      -5.140  23.734  55.769  1.00  0.00     0.114 C 
ATOM      6  H   UNL     1      -6.503  25.630  56.787  1.00  0.00     0.164 HD
ENDBRANCH   1   2
BRANCH   1   7
ATOM      7  C   UNL     1      -8.295  25.469  58.759  1.00  0.00    -0.021 A 
ATOM      8  C   UNL     1      -9.162  26.476  59.219  1.00  0.00     0.006 A 
ATOM      9  C   UNL     1      -7.329  24.963  59.644  1.00  0.00     0.006 A 
ATOM     10  C   UNL     1      -9.072  26.954  60.527  1.00  0.00     0.000 A 
ATOM     11  C   UNL     1      -7.238  25.444  60.951  1.00  0.00     0.000 A 
ATOM     12  C   UNL     1      -8.110  26.437  61.393  1.00  0.00     0.000 A 
ENDBRANCH   1   7
BRANCH   1  13
ATOM     13  C   UNL     1      -9.227  25.846  56.414  1.00  0.00     0.057 A 
ATOM     14  C   UNL     1     -10.552  25.666  56.122  1.00  0.00    -0.085 A 
ATOM     15  C   UNL     1      -8.405  26.978  55.899  1.00  0.00     0.341 A 
ATOM     16  C   UNL     1     -11.120  26.697  55.190  1.00  0.00     0.010 A 
ATOM     17  O   UNL     1      -8.990  27.852  55.003  1.00  0.00    -0.423 OA
ATOM     18  O   UNL     1      -7.238  27.166  56.242  1.00  0.00    -0.246 OA
ATOM     19  C   UNL     1     -12.470  26.673  54.788  1.00  0.00     0.011 A 
ATOM     20  C   UNL     1     -10.337  27.720  54.670  1.00  0.00     0.137 A 
ATOM     21  C   UNL     1     -12.998  27.628  53.910  1.00  0.00     0.001 A 
ATOM     22  C   UNL     1     -10.845  28.684  53.789  1.00  0.00     0.048 A 
ATOM     23  C   UNL     1     -12.182  28.637  53.409  1.00  0.00     0.004 A 
ATOM     24  O   UNL     1     -11.300  24.731  56.549  1.00  0.00    -0.872 OA
ENDBRANCH   1  13
TORSDOF 3
ENDMDL
MODEL 7
REMARK VINA RESULT:    -9.094      2.232      5.978
REMARK INTER + INTRA:         -11.885
REMARK INTER:                 -10.763
REMARK INTRA:                  -1.122
REMARK UNBOUND:                -1.197
REMARK SMILES CC(=O)N[C@@H](c1ccccc1)c1c([O-])c2ccccc2oc1=O
REMARK SMILES IDX 5 1 4 2 2 3 3 4 1 5 6 7 7 8 11 9 8 10 10 11 9 12 12 13 13 14
REMARK SMILES IDX 22 15 15 16 21 17 23 18 16 19 20 20 17 21 19 22 18 23 14 24
REMARK H PARENT 4 6
ROOT
ATOM      1  C   UNL     1      -9.598  26.076  57.743  1.00  0.00     0.149 C 
ENDROOT
BRANCH   1   2
ATOM      2  N   UNL     1      -9.756  26.758  56.470  1.00  0.00    -0.345 N 
ATOM      3  C   UNL     1      -8.915  27.702  55.969  1.00  0.00     0.217 C 
ATOM      4  O   UNL     1      -7.890  28.096  56.519  1.00  0.00    -0.275 OA
ATOM      5  C   UNL     1      -9.339  28.216  54.620  1.00  0.00     0.114 C 
ATOM      6  H   UNL     1     -10.563  26.412  55.936  1.00  0.00     0.164 HD
ENDBRANCH   1   2
BRANCH   1   7
ATOM      7  C   UNL     1     -10.876  25.308  58.081  1.00  0.00    -0.021 A 
ATOM      8  C   UNL     1     -11.044  24.689  59.332  1.00  0.00     0.006 A 
ATOM      9  C   UNL     1     -11.907  25.197  57.135  1.00  0.00     0.006 A 
ATOM     10  C   UNL     1     -12.214  23.989  59.630  1.00  0.00     0.000 A 
ATOM     11  C   UNL     1     -13.076  24.495  57.434  1.00  0.00     0.000 A 
ATOM     12  C   UNL     1     -13.230  23.892  58.681  1.00  0.00     0.000 A 
ENDBRANCH   1   7
BRANCH   1  13
ATOM     13  C   UNL     1      -8.352  25.171  57.728  1.00  0.00     0.057 A 
ATOM     14  C   UNL     1      -8.044  24.261  56.755  1.00  0.00    -0.085 A 
ATOM     15  C   UNL     1      -7.498  25.439  58.921  1.00  0.00     0.341 A 
ATOM     16  C   UNL     1      -6.771  23.504  57.003  1.00  0.00     0.010 A 
ATOM     17  O   UNL     1      -6.372  24.661  59.103  1.00  0.00    -0.423 OA
ATOM     18  O   UNL     1      -7.754  26.321  59.740  1.00  0.00    -0.246 OA
ATOM     19  C   UNL     1      -6.295  22.533  56.100  1.00  0.00     0.011 A 
ATOM     20  C   UNL     1      -6.007  23.718  58.143  1.00  0.00     0.137 A 
ATOM     21  C   UNL     1      -5.114  21.818  56.337  1.00  0.00     0.001 A 
ATOM     22  C   UNL     1      -4.823  23.013  58.399  1.00  0.00     0.048 A 
ATOM     23  C   UNL     1      -4.376  22.060  57.491  1.00  0.00     0.004 A 
ATOM     24  O   UNL     1      -8.726  24.010  55.712  1.00  0.00    -0.872 OA
ENDBRANCH   1  13
TORSDOF 3
ENDMDL
MODEL 8
REMARK VINA RESULT:    -8.271      2.195      6.116
REMARK INTER + INTRA:         -10.919
REMARK INTER:                 -11.257
REMARK INTRA:                   0.338
REMARK UNBOUND:                -1.197
REMARK SMILES CC(=O)N[C@@H](c1ccccc1)c1c([O-])c2ccccc2oc1=O
REMARK SMILES IDX 5 1 4 2 2 3 3 4 1 5 6 7 7 8 11 9 8 10 10 11 9 12 12 13 13 14
REMARK SMILES IDX 22 15 15 16 21 17 23 18 16 19 20 20 17 21 19 22 18 23 14 24
REMARK H PARENT 4 6
ROOT
ATOM      1  C   UNL     1      -8.335  24.901  58.159  1.00  0.00     0.149 C 
ENDROOT
BRANCH   1   2
ATOM      2  N   UNL     1      -7.886  25.621  59.338  1.00  0.00    -0.345 N 
ATOM      3  C   UNL     1      -8.655  25.930  60.417  1.00  0.00     0.217 C 
ATOM      4  O   UNL     1      -9.837  25.624  60.550  1.00  0.00    -0.275 OA
ATOM      5  C   UNL     1      -7.902  26.672  61.487  1.00  0.00     0.114 C 
ATOM      6  H   UNL     1      -6.883  25.839  59.306  1.00  0.00     0.164 HD
ENDBRANCH   1   2
BRANCH   1   7
ATOM      7  C   UNL     1      -8.848  25.890  57.112  1.00  0.00    -0.021 A 
ATOM      8  C   UNL     1      -8.173  27.096  56.857  1.00  0.00     0.006 A 
ATOM      9  C   UNL     1     -10.018  25.612  56.388  1.00  0.00     0.006 A 
ATOM     10  C   UNL     1      -8.650  27.993  55.899  1.00  0.00     0.000 A 
ATOM     11  C   UNL     1     -10.495  26.510  55.432  1.00  0.00     0.000 A 
ATOM     12  C   UNL     1      -9.811  27.699  55.186  1.00  0.00     0.000 A 
ENDBRANCH   1   7
BRANCH   1  13
ATOM     13  C   UNL     1      -7.218  23.991  57.615  1.00  0.00     0.057 A 
ATOM     14  C   UNL     1      -6.611  24.124  56.397  1.00  0.00    -0.085 A 
ATOM     15  C   UNL     1      -6.863  22.944  58.616  1.00  0.00     0.341 A 
ATOM     16  C   UNL     1      -5.561  23.087  56.119  1.00  0.00     0.010 A 
ATOM     17  O   UNL     1      -5.925  21.996  58.259  1.00  0.00    -0.423 OA
ATOM     18  O   UNL     1      -7.366  22.896  59.738  1.00  0.00    -0.246 OA
ATOM     19  C   UNL     1      -4.827  23.075  54.916  1.00  0.00     0.011 A 
ATOM     20  C   UNL     1      -5.270  22.081  57.031  1.00  0.00     0.137 A 
ATOM     21  C   UNL     1      -3.855  22.101  54.651  1.00  0.00     0.001 A 
ATOM     22  C   UNL     1      -4.303  21.097  56.785  1.00  0.00     0.048 A 
ATOM     23  C   UNL     1      -3.593  21.109  55.590  1.00  0.00     0.004 A 
ATOM     24  O   UNL     1      -6.863  25.007  55.518  1.00  0.00    -0.872 OA
ENDBRANCH   1  13
TORSDOF 3
ENDMDL
MODEL 9
REMARK VINA RESULT:    -7.857      2.399      5.763
REMARK INTER + INTRA:         -10.431
REMARK INTER:                 -10.195
REMARK INTRA:                  -0.237
REMARK UNBOUND:                -1.197
REMARK SMILES CC(=O)N[C@@H](c1ccccc1)c1c([O-])c2ccccc2oc1=O
REMARK SMILES IDX 5 1 4 2 2 3 3 4 1 5 6 7 7 8 11 9 8 10 10 11 9 12 12 13 13 14
REMARK SMILES IDX 22 15 15 16 21 17 23 18 16 19 20 20 17 21 19 22 18 23 14 24
REMARK H PARENT 4 6
ROOT
ATOM      1  C   UNL     1      -9.056  24.739  59.079  1.00  0.00     0.149 C 
ENDROOT
BRANCH   1   2
ATOM      2  N   UNL     1      -8.737  26.073  59.556  1.00  0.00    -0.345 N 
ATOM      3  C   UNL     1      -8.090  26.364  60.717  1.00  0.00     0.217 C 
ATOM      4  O   UNL     1      -7.668  25.533  61.516  1.00  0.00    -0.275 OA
ATOM      5  C   UNL     1      -7.894  27.841  60.931  1.00  0.00     0.114 C 
ATOM      6  H   UNL     1      -9.007  26.805  58.887  1.00  0.00     0.164 HD
ENDBRANCH   1   2
BRANCH   1   7
ATOM      7  C   UNL     1     -10.425  24.746  58.397  1.00  0.00    -0.021 A 
ATOM      8  C   UNL     1     -10.731  25.676  57.388  1.00  0.00     0.006 A 
ATOM      9  C   UNL     1     -11.412  23.824  58.779  1.00  0.00     0.006 A 
ATOM     10  C   UNL     1     -11.984  25.674  56.772  1.00  0.00     0.000 A 
ATOM     11  C   UNL     1     -12.665  23.825  58.164  1.00  0.00     0.000 A 
ATOM     12  C   UNL     1     -12.951  24.748  57.161  1.00  0.00     0.000 A 
ENDBRANCH   1   7
BRANCH   1  13
ATOM     13  C   UNL     1      -7.942  24.205  58.160  1.00  0.00     0.057 A 
ATOM     14  C   UNL     1      -7.601  24.726  56.943  1.00  0.00    -0.085 A 
ATOM     15  C   UNL     1      -7.257  23.041  58.792  1.00  0.00     0.341 A 
ATOM     16  C   UNL     1      -6.483  23.997  56.255  1.00  0.00     0.010 A 
ATOM     17  O   UNL     1      -6.276  22.392  58.068  1.00  0.00    -0.423 OA
ATOM     18  O   UNL     1      -7.527  22.642  59.925  1.00  0.00    -0.246 OA
ATOM     19  C   UNL     1      -5.995  24.401  54.996  1.00  0.00     0.011 A 
ATOM     20  C   UNL     1      -5.883  22.880  56.822  1.00  0.00     0.137 A 
ATOM     21  C   UNL     1      -4.960  23.713  54.348  1.00  0.00     0.001 A 
ATOM     22  C   UNL     1      -4.848  22.178  56.191  1.00  0.00     0.048 A 
ATOM     23  C   UNL     1      -4.385  22.598  54.949  1.00  0.00     0.004 A 
ATOM     24  O   UNL     1      -8.139  25.726  56.370  1.00  0.00    -0.872 OA
ENDBRANCH   1  13
TORSDOF 3
ENDMDL
