REMARK SMILES CC(=O)N[C@H](c1cccc(Br)c1)c1c([O-])c2ccccc2oc1=O
REMARK SMILES IDX 5 1 4 2 2 3 3 4 1 5 6 7 12 8 7 9 10 10 8 11 9 12 11 13 13 14
REMARK SMILES IDX 14 15 23 16 16 17 22 18 24 19 17 20 21 21 18 22 20 23 19 24
REMARK SMILES IDX 15 25
REMARK H PARENT 4 6
ROOT
ATOM      1  C   UNL     1      -1.084   0.350  -0.683  1.00  0.00     0.149 C 
ENDROOT
BRANCH   1   2
ATOM      2  N   UNL     1      -1.278   1.713  -0.223  1.00  0.00    -0.345 N 
ATOM      3  C   UNL     1      -2.333   2.512  -0.540  1.00  0.00     0.217 C 
ATOM      4  O   UNL     1      -3.262   2.189  -1.275  1.00  0.00    -0.275 OA
ATOM      5  C   UNL     1      -2.245   3.882   0.075  1.00  0.00     0.114 C 
ATOM      6  H   UNL     1      -0.492   2.053   0.346  1.00  0.00     0.164 HD
ENDBRANCH   1   2
BRANCH   1   7
ATOM      7  C   UNL     1      -1.911  -0.607   0.177  1.00  0.00    -0.020 A 
ATOM      8  C   UNL     1      -2.972  -1.330  -0.390  1.00  0.00     0.022 A 
ATOM      9  C   UNL     1      -1.639  -0.772   1.547  1.00  0.00     0.006 A 
ATOM     10  C   UNL     1      -3.729  -2.199   0.396  1.00  0.00     0.018 A 
ATOM     11  C   UNL     1      -2.399  -1.644   2.328  1.00  0.00     0.002 A 
ATOM     12  C   UNL     1      -3.447  -2.361   1.752  1.00  0.00     0.016 A 
ATOM     13  Br  UNL     1      -5.154  -3.171  -0.382  1.00  0.00    -0.051 Br
ENDBRANCH   1   7
BRANCH   1  14
ATOM     14  C   UNL     1       0.410  -0.017  -0.702  1.00  0.00     0.057 A 
ATOM     15  C   UNL     1       1.388   0.606   0.024  1.00  0.00    -0.085 A 
ATOM     16  C   UNL     1       0.660  -1.145  -1.644  1.00  0.00     0.341 A 
ATOM     17  C   UNL     1       2.761   0.036  -0.180  1.00  0.00     0.010 A 
ATOM     18  O   UNL     1       1.946  -1.638  -1.744  1.00  0.00    -0.423 OA
ATOM     19  O   UNL     1      -0.228  -1.646  -2.332  1.00  0.00    -0.246 OA
ATOM     20  C   UNL     1       3.890   0.558   0.482  1.00  0.00     0.011 A 
ATOM     21  C   UNL     1       2.985  -1.042  -1.028  1.00  0.00     0.137 A 
ATOM     22  C   UNL     1       5.170   0.021   0.298  1.00  0.00     0.001 A 
ATOM     23  C   UNL     1       4.256  -1.595  -1.225  1.00  0.00     0.048 A 
ATOM     24  C   UNL     1       5.354  -1.060  -0.558  1.00  0.00     0.004 A 
ATOM     25  O   UNL     1       1.228   1.578   0.829  1.00  0.00    -0.872 OA
ENDBRANCH   1  14
TORSDOF 3
