MODEL 1
REMARK VINA RESULT:   -11.173      0.000      0.000
REMARK INTER + INTRA:         -13.548
REMARK INTER:                 -13.133
REMARK INTRA:                  -0.415
REMARK UNBOUND:                -0.415
REMARK SMILES CC(=O)N[C@@H](c1cccc(Br)c1)c1c([O-])c2ccccc2oc1=O
REMARK SMILES IDX 5 1 4 2 2 3 3 4 1 5 6 7 12 8 7 9 10 10 8 11 9 12 11 13 13 14
REMARK SMILES IDX 14 15 23 16 16 17 22 18 24 19 17 20 21 21 18 22 20 23 19 24
REMARK SMILES IDX 15 25
REMARK H PARENT 4 6
ROOT
ATOM      1  C   UNL     1      -8.451  26.625  56.922  1.00  0.00     0.149 C 
ENDROOT
BRANCH   1   2
ATOM      2  N   UNL     1      -8.847  26.128  58.228  1.00  0.00    -0.345 N 
ATOM      3  C   UNL     1      -8.569  26.725  59.418  1.00  0.00     0.217 C 
ATOM      4  O   UNL     1      -7.954  27.780  59.548  1.00  0.00    -0.275 OA
ATOM      5  C   UNL     1      -9.128  25.980  60.600  1.00  0.00     0.114 C 
ATOM      6  H   UNL     1      -9.421  25.277  58.169  1.00  0.00     0.164 HD
ENDBRANCH   1   2
BRANCH   1   7
ATOM      7  C   UNL     1      -7.397  25.697  56.317  1.00  0.00    -0.020 A 
ATOM      8  C   UNL     1      -7.122  24.455  56.911  1.00  0.00     0.022 A 
ATOM      9  C   UNL     1      -6.694  26.057  55.154  1.00  0.00     0.006 A 
ATOM     10  C   UNL     1      -6.163  23.607  56.358  1.00  0.00     0.018 A 
ATOM     11  C   UNL     1      -5.735  25.205  54.604  1.00  0.00     0.002 A 
ATOM     12  C   UNL     1      -5.467  23.977  55.207  1.00  0.00     0.016 A 
ATOM     13  Br  UNL     1      -5.801  21.938  57.172  1.00  0.00    -0.051 Br
ENDBRANCH   1   7
BRANCH   1  14
ATOM     14  C   UNL     1      -9.675  26.802  56.007  1.00  0.00     0.057 A 
ATOM     15  C   UNL     1      -9.836  27.800  55.084  1.00  0.00    -0.085 A 
ATOM     16  C   UNL     1     -10.669  25.717  56.245  1.00  0.00     0.341 A 
ATOM     17  C   UNL     1     -11.133  27.736  54.332  1.00  0.00     0.010 A 
ATOM     18  O   UNL     1     -11.856  25.754  55.540  1.00  0.00    -0.423 OA
ATOM     19  O   UNL     1     -10.470  24.796  57.037  1.00  0.00    -0.246 OA
ATOM     20  C   UNL     1     -11.464  28.679  53.339  1.00  0.00     0.011 A 
ATOM     21  C   UNL     1     -12.075  26.747  54.585  1.00  0.00     0.137 A 
ATOM     22  C   UNL     1     -12.679  28.625  52.643  1.00  0.00     0.001 A 
ATOM     23  C   UNL     1     -13.295  26.675  53.902  1.00  0.00     0.048 A 
ATOM     24  C   UNL     1     -13.597  27.620  52.926  1.00  0.00     0.004 A 
ATOM     25  O   UNL     1      -9.014  28.737  54.835  1.00  0.00    -0.872 OA
ENDBRANCH   1  14
TORSDOF 3
ENDMDL
MODEL 2
REMARK VINA RESULT:   -11.015      1.740      2.677
REMARK INTER + INTRA:         -13.362
REMARK INTER:                 -12.771
REMARK INTRA:                  -0.591
REMARK UNBOUND:                -0.415
REMARK SMILES CC(=O)N[C@@H](c1cccc(Br)c1)c1c([O-])c2ccccc2oc1=O
REMARK SMILES IDX 5 1 4 2 2 3 3 4 1 5 6 7 12 8 7 9 10 10 8 11 9 12 11 13 13 14
REMARK SMILES IDX 14 15 23 16 16 17 22 18 24 19 17 20 21 21 18 22 20 23 19 24
REMARK SMILES IDX 15 25
REMARK H PARENT 4 6
ROOT
ATOM      1  C   UNL     1     -10.039  25.680  57.335  1.00  0.00     0.149 C 
ENDROOT
BRANCH   1   2
ATOM      2  N   UNL     1     -11.069  24.779  57.819  1.00  0.00    -0.345 N 
ATOM      3  C   UNL     1     -11.351  24.530  59.126  1.00  0.00     0.217 C 
ATOM      4  O   UNL     1     -10.777  25.050  60.079  1.00  0.00    -0.275 OA
ATOM      5  C   UNL     1     -12.487  23.561  59.315  1.00  0.00     0.114 C 
ATOM      6  H   UNL     1     -11.621  24.366  57.057  1.00  0.00     0.164 HD
ENDBRANCH   1   2
BRANCH   1   7
ATOM      7  C   UNL     1      -8.773  24.886  57.007  1.00  0.00    -0.020 A 
ATOM      8  C   UNL     1      -7.853  24.572  58.020  1.00  0.00     0.022 A 
ATOM      9  C   UNL     1      -8.510  24.447  55.698  1.00  0.00     0.006 A 
ATOM     10  C   UNL     1      -6.700  23.846  57.722  1.00  0.00     0.018 A 
ATOM     11  C   UNL     1      -7.355  23.720  55.405  1.00  0.00     0.002 A 
ATOM     12  C   UNL     1      -6.446  23.419  56.419  1.00  0.00     0.016 A 
ATOM     13  Br  UNL     1      -5.467  23.433  59.096  1.00  0.00    -0.051 Br
ENDBRANCH   1   7
BRANCH   1  14
ATOM     14  C   UNL     1     -10.545  26.502  56.137  1.00  0.00     0.057 A 
ATOM     15  C   UNL     1     -11.672  26.231  55.410  1.00  0.00    -0.085 A 
ATOM     16  C   UNL     1      -9.645  27.662  55.880  1.00  0.00     0.341 A 
ATOM     17  C   UNL     1     -11.925  27.194  54.288  1.00  0.00     0.010 A 
ATOM     18  O   UNL     1      -9.926  28.479  54.802  1.00  0.00    -0.423 OA
ATOM     19  O   UNL     1      -8.673  27.919  56.589  1.00  0.00    -0.246 OA
ATOM     20  C   UNL     1     -13.044  27.073  53.441  1.00  0.00     0.011 A 
ATOM     21  C   UNL     1     -11.062  28.251  54.026  1.00  0.00     0.137 A 
ATOM     22  C   UNL     1     -13.275  27.967  52.387  1.00  0.00     0.001 A 
ATOM     23  C   UNL     1     -11.274  29.156  52.978  1.00  0.00     0.048 A 
ATOM     24  C   UNL     1     -12.387  29.012  52.155  1.00  0.00     0.004 A 
ATOM     25  O   UNL     1     -12.477  25.264  55.598  1.00  0.00    -0.872 OA
ENDBRANCH   1  14
TORSDOF 3
ENDMDL
MODEL 3
REMARK VINA RESULT:   -10.998      1.260      2.620
REMARK INTER + INTRA:         -13.342
REMARK INTER:                 -12.099
REMARK INTRA:                  -1.243
REMARK UNBOUND:                -0.415
REMARK SMILES CC(=O)N[C@@H](c1cccc(Br)c1)c1c([O-])c2ccccc2oc1=O
REMARK SMILES IDX 5 1 4 2 2 3 3 4 1 5 6 7 12 8 7 9 10 10 8 11 9 12 11 13 13 14
REMARK SMILES IDX 14 15 23 16 16 17 22 18 24 19 17 20 21 21 18 22 20 23 19 24
REMARK SMILES IDX 15 25
REMARK H PARENT 4 6
ROOT
ATOM      1  C   UNL     1      -7.765  25.998  57.712  1.00  0.00     0.149 C 
ENDROOT
BRANCH   1   2
ATOM      2  N   UNL     1      -8.355  25.850  59.030  1.00  0.00    -0.345 N 
ATOM      3  C   UNL     1      -8.393  26.812  59.992  1.00  0.00     0.217 C 
ATOM      4  O   UNL     1      -7.943  27.947  59.867  1.00  0.00    -0.275 OA
ATOM      5  C   UNL     1      -9.089  26.366  61.249  1.00  0.00     0.114 C 
ATOM      6  H   UNL     1      -8.804  24.934  59.161  1.00  0.00     0.164 HD
ENDBRANCH   1   2
BRANCH   1   7
ATOM      7  C   UNL     1      -7.105  24.683  57.293  1.00  0.00    -0.020 A 
ATOM      8  C   UNL     1      -6.302  24.630  56.143  1.00  0.00     0.022 A 
ATOM      9  C   UNL     1      -7.277  23.511  58.050  1.00  0.00     0.006 A 
ATOM     10  C   UNL     1      -5.698  23.432  55.763  1.00  0.00     0.018 A 
ATOM     11  C   UNL     1      -6.670  22.315  57.665  1.00  0.00     0.002 A 
ATOM     12  C   UNL     1      -5.879  22.273  56.518  1.00  0.00     0.016 A 
ATOM     13  Br  UNL     1      -4.620  23.374  54.209  1.00  0.00    -0.051 Br
ENDBRANCH   1   7
BRANCH   1  14
ATOM     14  C   UNL     1      -8.810  26.483  56.692  1.00  0.00     0.057 A 
ATOM     15  C   UNL     1     -10.006  25.871  56.431  1.00  0.00    -0.085 A 
ATOM     16  C   UNL     1      -8.353  27.739  56.031  1.00  0.00     0.341 A 
ATOM     17  C   UNL     1     -10.830  26.556  55.381  1.00  0.00     0.010 A 
ATOM     18  O   UNL     1      -9.152  28.284  55.046  1.00  0.00    -0.423 OA
ATOM     19  O   UNL     1      -7.302  28.302  56.330  1.00  0.00    -0.246 OA
ATOM     20  C   UNL     1     -12.092  26.069  54.990  1.00  0.00     0.011 A 
ATOM     21  C   UNL     1     -10.383  27.703  54.737  1.00  0.00     0.137 A 
ATOM     22  C   UNL     1     -12.857  26.704  54.003  1.00  0.00     0.001 A 
ATOM     23  C   UNL     1     -11.131  28.353  53.748  1.00  0.00     0.048 A 
ATOM     24  C   UNL     1     -12.375  27.850  53.380  1.00  0.00     0.004 A 
ATOM     25  O   UNL     1     -10.446  24.810  56.977  1.00  0.00    -0.872 OA
ENDBRANCH   1  14
TORSDOF 3
ENDMDL
MODEL 4
REMARK VINA RESULT:    -9.413      2.945      6.264
REMARK INTER + INTRA:         -11.479
REMARK INTER:                 -11.918
REMARK INTRA:                   0.439
REMARK UNBOUND:                -0.415
REMARK SMILES CC(=O)N[C@@H](c1cccc(Br)c1)c1c([O-])c2ccccc2oc1=O
REMARK SMILES IDX 5 1 4 2 2 3 3 4 1 5 6 7 12 8 7 9 10 10 8 11 9 12 11 13 13 14
REMARK SMILES IDX 14 15 23 16 16 17 22 18 24 19 17 20 21 21 18 22 20 23 19 24
REMARK SMILES IDX 15 25
REMARK H PARENT 4 6
ROOT
ATOM      1  C   UNL     1      -8.315  24.844  58.021  1.00  0.00     0.149 C 
ENDROOT
BRANCH   1   2
ATOM      2  N   UNL     1      -7.868  25.506  59.233  1.00  0.00    -0.345 N 
ATOM      3  C   UNL     1      -8.657  25.833  60.292  1.00  0.00     0.217 C 
ATOM      4  O   UNL     1      -9.859  25.598  60.371  1.00  0.00    -0.275 OA
ATOM      5  C   UNL     1      -7.901  26.497  61.412  1.00  0.00     0.114 C 
ATOM      6  H   UNL     1      -6.853  25.667  59.242  1.00  0.00     0.164 HD
ENDBRANCH   1   2
BRANCH   1   7
ATOM      7  C   UNL     1      -8.808  25.887  57.017  1.00  0.00    -0.020 A 
ATOM      8  C   UNL     1     -10.015  25.690  56.326  1.00  0.00     0.022 A 
ATOM      9  C   UNL     1      -8.077  27.063  56.774  1.00  0.00     0.006 A 
ATOM     10  C   UNL     1     -10.466  26.643  55.414  1.00  0.00     0.018 A 
ATOM     11  C   UNL     1      -8.534  28.014  55.859  1.00  0.00     0.002 A 
ATOM     12  C   UNL     1      -9.730  27.804  55.175  1.00  0.00     0.016 A 
ATOM     13  Br  UNL     1     -12.092  26.363  54.488  1.00  0.00    -0.051 Br
ENDBRANCH   1   7
BRANCH   1  14
ATOM     14  C   UNL     1      -7.207  23.948  57.442  1.00  0.00     0.057 A 
ATOM     15  C   UNL     1      -6.606  24.118  56.224  1.00  0.00    -0.085 A 
ATOM     16  C   UNL     1      -6.852  22.866  58.404  1.00  0.00     0.341 A 
ATOM     17  C   UNL     1      -5.559  23.090  55.908  1.00  0.00     0.010 A 
ATOM     18  O   UNL     1      -5.906  21.936  58.020  1.00  0.00    -0.423 OA
ATOM     19  O   UNL     1      -7.364  22.774  59.519  1.00  0.00    -0.246 OA
ATOM     20  C   UNL     1      -4.834  23.115  54.701  1.00  0.00     0.011 A 
ATOM     21  C   UNL     1      -5.260  22.059  56.789  1.00  0.00     0.137 A 
ATOM     22  C   UNL     1      -3.863  22.150  54.402  1.00  0.00     0.001 A 
ATOM     23  C   UNL     1      -4.293  21.085  56.510  1.00  0.00     0.048 A 
ATOM     24  C   UNL     1      -3.592  21.132  55.309  1.00  0.00     0.004 A 
ATOM     25  O   UNL     1      -6.863  25.030  55.376  1.00  0.00    -0.872 OA
ENDBRANCH   1  14
TORSDOF 3
ENDMDL
MODEL 5
REMARK VINA RESULT:    -9.051      1.890      4.065
REMARK INTER + INTRA:         -11.054
REMARK INTER:                 -10.575
REMARK INTRA:                  -0.480
REMARK UNBOUND:                -0.415
REMARK SMILES CC(=O)N[C@@H](c1cccc(Br)c1)c1c([O-])c2ccccc2oc1=O
REMARK SMILES IDX 5 1 4 2 2 3 3 4 1 5 6 7 12 8 7 9 10 10 8 11 9 12 11 13 13 14
REMARK SMILES IDX 14 15 23 16 16 17 22 18 24 19 17 20 21 21 18 22 20 23 19 24
REMARK SMILES IDX 15 25
REMARK H PARENT 4 6
ROOT
ATOM      1  C   UNL     1      -8.546  24.958  56.998  1.00  0.00     0.149 C 
ENDROOT
BRANCH   1   2
ATOM      2  N   UNL     1      -7.232  24.724  56.428  1.00  0.00    -0.345 N 
ATOM      3  C   UNL     1      -6.729  23.510  56.076  1.00  0.00     0.217 C 
ATOM      4  O   UNL     1      -7.329  22.444  56.181  1.00  0.00    -0.275 OA
ATOM      5  C   UNL     1      -5.343  23.588  55.493  1.00  0.00     0.114 C 
ATOM      6  H   UNL     1      -6.713  25.595  56.261  1.00  0.00     0.164 HD
ENDBRANCH   1   2
BRANCH   1   7
ATOM      7  C   UNL     1      -8.401  25.427  58.447  1.00  0.00    -0.020 A 
ATOM      8  C   UNL     1      -7.213  25.185  59.154  1.00  0.00     0.022 A 
ATOM      9  C   UNL     1      -9.442  26.116  59.095  1.00  0.00     0.006 A 
ATOM     10  C   UNL     1      -7.079  25.615  60.474  1.00  0.00     0.018 A 
ATOM     11  C   UNL     1      -9.303  26.545  60.416  1.00  0.00     0.002 A 
ATOM     12  C   UNL     1      -8.120  26.293  61.109  1.00  0.00     0.016 A 
ATOM     13  Br  UNL     1      -5.473  25.278  61.415  1.00  0.00    -0.051 Br
ENDBRANCH   1   7
BRANCH   1  14
ATOM     14  C   UNL     1      -9.352  25.947  56.137  1.00  0.00     0.057 A 
ATOM     15  C   UNL     1     -10.673  25.814  55.806  1.00  0.00    -0.085 A 
ATOM     16  C   UNL     1      -8.498  27.097  55.723  1.00  0.00     0.341 A 
ATOM     17  C   UNL     1     -11.203  26.924  54.946  1.00  0.00     0.010 A 
ATOM     18  O   UNL     1      -9.052  28.056  54.898  1.00  0.00    -0.423 OA
ATOM     19  O   UNL     1      -7.330  27.222  56.088  1.00  0.00    -0.246 OA
ATOM     20  C   UNL     1     -12.544  26.955  54.515  1.00  0.00     0.011 A 
ATOM     21  C   UNL     1     -10.394  27.973  54.528  1.00  0.00     0.137 A 
ATOM     22  C   UNL     1     -13.037  27.987  53.706  1.00  0.00     0.001 A 
ATOM     23  C   UNL     1     -10.867  29.014  53.718  1.00  0.00     0.048 A 
ATOM     24  C   UNL     1     -12.196  29.019  53.306  1.00  0.00     0.004 A 
ATOM     25  O   UNL     1     -11.444  24.863  56.145  1.00  0.00    -0.872 OA
ENDBRANCH   1  14
TORSDOF 3
ENDMDL
MODEL 6
REMARK VINA RESULT:    -8.923      2.512      6.620
REMARK INTER + INTRA:         -10.903
REMARK INTER:                 -10.455
REMARK INTRA:                  -0.448
REMARK UNBOUND:                -0.415
REMARK SMILES CC(=O)N[C@@H](c1cccc(Br)c1)c1c([O-])c2ccccc2oc1=O
REMARK SMILES IDX 5 1 4 2 2 3 3 4 1 5 6 7 12 8 7 9 10 10 8 11 9 12 11 13 13 14
REMARK SMILES IDX 14 15 23 16 16 17 22 18 24 19 17 20 21 21 18 22 20 23 19 24
REMARK SMILES IDX 15 25
REMARK H PARENT 4 6
ROOT
ATOM      1  C   UNL     1      -7.985  25.753  56.976  1.00  0.00     0.149 C 
ENDROOT
BRANCH   1   2
ATOM      2  N   UNL     1      -9.320  25.480  56.477  1.00  0.00    -0.345 N 
ATOM      3  C   UNL     1     -10.139  26.385  55.876  1.00  0.00     0.217 C 
ATOM      4  O   UNL     1      -9.850  27.559  55.661  1.00  0.00    -0.275 OA
ATOM      5  C   UNL     1     -11.458  25.800  55.448  1.00  0.00     0.114 C 
ATOM      6  H   UNL     1      -9.585  24.492  56.576  1.00  0.00     0.164 HD
ENDBRANCH   1   2
BRANCH   1   7
ATOM      7  C   UNL     1      -8.016  25.848  58.502  1.00  0.00    -0.020 A 
ATOM      8  C   UNL     1      -6.867  25.555  59.254  1.00  0.00     0.022 A 
ATOM      9  C   UNL     1      -9.184  26.238  59.182  1.00  0.00     0.006 A 
ATOM     10  C   UNL     1      -6.894  25.645  60.645  1.00  0.00     0.018 A 
ATOM     11  C   UNL     1      -9.206  26.326  60.575  1.00  0.00     0.002 A 
ATOM     12  C   UNL     1      -8.059  26.027  61.310  1.00  0.00     0.016 A 
ATOM     13  Br  UNL     1      -5.338  25.245  61.644  1.00  0.00    -0.051 Br
ENDBRANCH   1   7
BRANCH   1  14
ATOM     14  C   UNL     1      -6.983  24.699  56.473  1.00  0.00     0.057 A 
ATOM     15  C   UNL     1      -6.940  23.392  56.874  1.00  0.00    -0.085 A 
ATOM     16  C   UNL     1      -6.065  25.292  55.459  1.00  0.00     0.341 A 
ATOM     17  C   UNL     1      -5.852  22.587  56.225  1.00  0.00     0.010 A 
ATOM     18  O   UNL     1      -5.065  24.494  54.939  1.00  0.00    -0.423 OA
ATOM     19  O   UNL     1      -6.167  26.455  55.069  1.00  0.00    -0.246 OA
ATOM     20  C   UNL     1      -5.664  21.221  56.514  1.00  0.00     0.011 A 
ATOM     21  C   UNL     1      -4.973  23.152  55.311  1.00  0.00     0.137 A 
ATOM     22  C   UNL     1      -4.643  20.472  55.915  1.00  0.00     0.001 A 
ATOM     23  C   UNL     1      -3.946  22.422  54.700  1.00  0.00     0.048 A 
ATOM     24  C   UNL     1      -3.781  21.074  55.005  1.00  0.00     0.004 A 
ATOM     25  O   UNL     1      -7.707  22.837  57.723  1.00  0.00    -0.872 OA
ENDBRANCH   1  14
TORSDOF 3
ENDMDL
MODEL 7
REMARK VINA RESULT:    -8.875      3.179      6.146
REMARK INTER + INTRA:         -10.846
REMARK INTER:                 -10.631
REMARK INTRA:                  -0.216
REMARK UNBOUND:                -0.415
REMARK SMILES CC(=O)N[C@@H](c1cccc(Br)c1)c1c([O-])c2ccccc2oc1=O
REMARK SMILES IDX 5 1 4 2 2 3 3 4 1 5 6 7 12 8 7 9 10 10 8 11 9 12 11 13 13 14
REMARK SMILES IDX 14 15 23 16 16 17 22 18 24 19 17 20 21 21 18 22 20 23 19 24
REMARK SMILES IDX 15 25
REMARK H PARENT 4 6
ROOT
ATOM      1  C   UNL     1      -9.111  24.746  59.102  1.00  0.00     0.149 C 
ENDROOT
BRANCH   1   2
ATOM      2  N   UNL     1      -8.820  26.093  59.558  1.00  0.00    -0.345 N 
ATOM      3  C   UNL     1      -8.104  26.414  60.670  1.00  0.00     0.217 C 
ATOM      4  O   UNL     1      -7.592  25.600  61.434  1.00  0.00    -0.275 OA
ATOM      5  C   UNL     1      -7.954  27.897  60.872  1.00  0.00     0.114 C 
ATOM      6  H   UNL     1      -9.174  26.813  58.915  1.00  0.00     0.164 HD
ENDBRANCH   1   2
BRANCH   1   7
ATOM      7  C   UNL     1     -10.490  24.715  58.441  1.00  0.00    -0.020 A 
ATOM      8  C   UNL     1     -10.785  25.581  57.377  1.00  0.00     0.022 A 
ATOM      9  C   UNL     1     -11.482  23.817  58.873  1.00  0.00     0.006 A 
ATOM     10  C   UNL     1     -12.041  25.550  56.772  1.00  0.00     0.018 A 
ATOM     11  C   UNL     1     -12.738  23.790  58.265  1.00  0.00     0.002 A 
ATOM     12  C   UNL     1     -13.020  24.660  57.212  1.00  0.00     0.016 A 
ATOM     13  Br  UNL     1     -12.425  26.726  55.340  1.00  0.00    -0.051 Br
ENDBRANCH   1   7
BRANCH   1  14
ATOM     14  C   UNL     1      -8.001  24.228  58.171  1.00  0.00     0.057 A 
ATOM     15  C   UNL     1      -7.666  24.769  56.960  1.00  0.00    -0.085 A 
ATOM     16  C   UNL     1      -7.311  23.055  58.781  1.00  0.00     0.341 A 
ATOM     17  C   UNL     1      -6.547  24.057  56.258  1.00  0.00     0.010 A 
ATOM     18  O   UNL     1      -6.318  22.432  58.052  1.00  0.00    -0.423 OA
ATOM     19  O   UNL     1      -7.591  22.629  59.901  1.00  0.00    -0.246 OA
ATOM     20  C   UNL     1      -6.066  24.480  55.003  1.00  0.00     0.011 A 
ATOM     21  C   UNL     1      -5.934  22.939  56.810  1.00  0.00     0.137 A 
ATOM     22  C   UNL     1      -5.028  23.809  54.345  1.00  0.00     0.001 A 
ATOM     23  C   UNL     1      -4.895  22.254  56.169  1.00  0.00     0.048 A 
ATOM     24  C   UNL     1      -4.440  22.693  54.929  1.00  0.00     0.004 A 
ATOM     25  O   UNL     1      -8.213  25.774  56.405  1.00  0.00    -0.872 OA
ENDBRANCH   1  14
TORSDOF 3
ENDMDL
MODEL 8
REMARK VINA RESULT:    -8.734      2.682      6.718
REMARK INTER + INTRA:         -10.680
REMARK INTER:                 -10.629
REMARK INTRA:                  -0.052
REMARK UNBOUND:                -0.415
REMARK SMILES CC(=O)N[C@@H](c1cccc(Br)c1)c1c([O-])c2ccccc2oc1=O
REMARK SMILES IDX 5 1 4 2 2 3 3 4 1 5 6 7 12 8 7 9 10 10 8 11 9 12 11 13 13 14
REMARK SMILES IDX 14 15 23 16 16 17 22 18 24 19 17 20 21 21 18 22 20 23 19 24
REMARK SMILES IDX 15 25
REMARK H PARENT 4 6
ROOT
ATOM      1  C   UNL     1      -7.622  26.099  56.708  1.00  0.00     0.149 C 
ENDROOT
BRANCH   1   2
ATOM      2  N   UNL     1      -8.640  26.357  55.706  1.00  0.00    -0.345 N 
ATOM      3  C   UNL     1      -9.103  27.584  55.346  1.00  0.00     0.217 C 
ATOM      4  O   UNL     1      -8.708  28.648  55.815  1.00  0.00    -0.275 OA
ATOM      5  C   UNL     1     -10.147  27.531  54.264  1.00  0.00     0.114 C 
ATOM      6  H   UNL     1      -8.958  25.499  55.238  1.00  0.00     0.164 HD
ENDBRANCH   1   2
BRANCH   1   7
ATOM      7  C   UNL     1      -8.284  25.882  58.070  1.00  0.00    -0.020 A 
ATOM      8  C   UNL     1      -9.592  25.378  58.148  1.00  0.00     0.022 A 
ATOM      9  C   UNL     1      -7.600  26.169  59.264  1.00  0.00     0.006 A 
ATOM     10  C   UNL     1     -10.195  25.176  59.389  1.00  0.00     0.018 A 
ATOM     11  C   UNL     1      -8.208  25.966  60.504  1.00  0.00     0.002 A 
ATOM     12  C   UNL     1      -9.510  25.470  60.568  1.00  0.00     0.016 A 
ATOM     13  Br  UNL     1     -11.959  24.499  59.479  1.00  0.00    -0.051 Br
ENDBRANCH   1   7
BRANCH   1  14
ATOM     14  C   UNL     1      -6.727  24.918  56.294  1.00  0.00     0.057 A 
ATOM     15  C   UNL     1      -6.785  23.657  56.822  1.00  0.00    -0.085 A 
ATOM     16  C   UNL     1      -5.789  25.328  55.210  1.00  0.00     0.341 A 
ATOM     17  C   UNL     1      -5.788  22.701  56.236  1.00  0.00     0.010 A 
ATOM     18  O   UNL     1      -4.875  24.398  54.754  1.00  0.00    -0.423 OA
ATOM     19  O   UNL     1      -5.801  26.452  54.710  1.00  0.00    -0.246 OA
ATOM     20  C   UNL     1      -5.710  21.358  56.655  1.00  0.00     0.011 A 
ATOM     21  C   UNL     1      -4.887  23.096  55.255  1.00  0.00     0.137 A 
ATOM     22  C   UNL     1      -4.772  20.468  56.115  1.00  0.00     0.001 A 
ATOM     23  C   UNL     1      -3.942  22.223  54.702  1.00  0.00     0.048 A 
ATOM     24  C   UNL     1      -3.886  20.902  55.135  1.00  0.00     0.004 A 
ATOM     25  O   UNL     1      -7.574  23.257  57.734  1.00  0.00    -0.872 OA
ENDBRANCH   1  14
TORSDOF 3
ENDMDL
MODEL 9
REMARK VINA RESULT:    -8.520      3.038      6.535
REMARK INTER + INTRA:         -10.430
REMARK INTER:                 -10.552
REMARK INTRA:                   0.123
REMARK UNBOUND:                -0.415
REMARK SMILES CC(=O)N[C@@H](c1cccc(Br)c1)c1c([O-])c2ccccc2oc1=O
REMARK SMILES IDX 5 1 4 2 2 3 3 4 1 5 6 7 12 8 7 9 10 10 8 11 9 12 11 13 13 14
REMARK SMILES IDX 14 15 23 16 16 17 22 18 24 19 17 20 21 21 18 22 20 23 19 24
REMARK SMILES IDX 15 25
REMARK H PARENT 4 6
ROOT
ATOM      1  C   UNL     1      -9.872  24.504  56.947  1.00  0.00     0.149 C 
ENDROOT
BRANCH   1   2
ATOM      2  N   UNL     1     -10.603  24.602  58.198  1.00  0.00    -0.345 N 
ATOM      3  C   UNL     1     -11.909  24.268  58.379  1.00  0.00     0.217 C 
ATOM      4  O   UNL     1     -12.647  23.823  57.504  1.00  0.00    -0.275 OA
ATOM      5  C   UNL     1     -12.381  24.461  59.795  1.00  0.00     0.114 C 
ATOM      6  H   UNL     1     -10.009  24.910  58.979  1.00  0.00     0.164 HD
ENDBRANCH   1   2
BRANCH   1   7
ATOM      7  C   UNL     1      -9.930  25.844  56.212  1.00  0.00    -0.020 A 
ATOM      8  C   UNL     1     -10.991  26.125  55.335  1.00  0.00     0.022 A 
ATOM      9  C   UNL     1      -8.939  26.822  56.405  1.00  0.00     0.006 A 
ATOM     10  C   UNL     1     -11.045  27.348  54.668  1.00  0.00     0.018 A 
ATOM     11  C   UNL     1      -8.999  28.045  55.734  1.00  0.00     0.002 A 
ATOM     12  C   UNL     1     -10.053  28.309  54.861  1.00  0.00     0.016 A 
ATOM     13  Br  UNL     1     -12.478  27.711  53.487  1.00  0.00    -0.051 Br
ENDBRANCH   1   7
BRANCH   1  14
ATOM     14  C   UNL     1      -8.430  24.027  57.188  1.00  0.00     0.057 A 
ATOM     15  C   UNL     1      -7.568  23.590  56.219  1.00  0.00    -0.085 A 
ATOM     16  C   UNL     1      -8.080  24.124  58.634  1.00  0.00     0.341 A 
ATOM     17  C   UNL     1      -6.221  23.177  56.737  1.00  0.00     0.010 A 
ATOM     18  O   UNL     1      -6.834  23.685  59.034  1.00  0.00    -0.423 OA
ATOM     19  O   UNL     1      -8.854  24.580  59.475  1.00  0.00    -0.246 OA
ATOM     20  C   UNL     1      -5.207  22.708  55.880  1.00  0.00     0.011 A 
ATOM     21  C   UNL     1      -5.913  23.230  58.090  1.00  0.00     0.137 A 
ATOM     22  C   UNL     1      -3.953  22.313  56.364  1.00  0.00     0.001 A 
ATOM     23  C   UNL     1      -4.666  22.840  58.595  1.00  0.00     0.048 A 
ATOM     24  C   UNL     1      -3.682  22.379  57.727  1.00  0.00     0.004 A 
ATOM     25  O   UNL     1      -7.813  23.503  54.974  1.00  0.00    -0.872 OA
ENDBRANCH   1  14
TORSDOF 3
ENDMDL
