MODEL 1
REMARK VINA RESULT:   -11.548      0.000      0.000
REMARK INTER + INTRA:         -15.588
REMARK INTER:                 -14.248
REMARK INTRA:                  -1.340
REMARK UNBOUND:                -1.340
REMARK SMILES CC(=O)N[C@@H](c1cccc([N+](=O)[O-])c1)c1c([O-])c2ccccc2oc1=O
REMARK SMILES IDX 6 1 14 2 10 3 9 4 8 5 7 6 5 7 4 8 2 9 3 10 1 11 15 13 16 14
REMARK SMILES IDX 25 15 18 16 24 17 26 18 19 19 23 20 20 21 22 22 21 23 17 24
REMARK SMILES IDX 11 25 12 26 13 27
REMARK H PARENT 4 12
ROOT
ATOM      1  C   UNL     1      -7.259  24.815  57.178  1.00  0.00    -0.014 A 
ATOM      2  C   UNL     1      -6.404  24.822  56.063  1.00  0.00     0.091 A 
ATOM      3  C   UNL     1      -5.742  23.647  55.686  1.00  0.00     0.269 A 
ATOM      4  C   UNL     1      -5.919  22.459  56.408  1.00  0.00     0.085 A 
ATOM      5  C   UNL     1      -6.763  22.450  57.518  1.00  0.00     0.007 A 
ATOM      6  C   UNL     1      -7.423  23.619  57.900  1.00  0.00     0.007 A 
ENDROOT
BRANCH   1   7
ATOM      7  C   UNL     1      -7.978  26.097  57.604  1.00  0.00     0.150 C 
BRANCH   7   8
ATOM      8  N   UNL     1      -8.612  25.893  58.894  1.00  0.00    -0.345 N 
ATOM      9  C   UNL     1      -8.569  26.762  59.940  1.00  0.00     0.217 C 
ATOM     10  O   UNL     1      -7.986  27.843  59.928  1.00  0.00    -0.275 OA
ATOM     11  C   UNL     1      -9.344  26.287  61.139  1.00  0.00     0.114 C 
ATOM     12  H   UNL     1      -9.151  25.018  58.936  1.00  0.00     0.164 HD
ENDBRANCH   7   8
BRANCH   7  13
ATOM     13  C   UNL     1      -8.998  26.575  56.556  1.00  0.00     0.057 A 
ATOM     14  C   UNL     1     -10.186  25.961  56.269  1.00  0.00    -0.085 A 
ATOM     15  C   UNL     1      -8.523  27.824  55.895  1.00  0.00     0.341 A 
ATOM     16  C   UNL     1     -10.987  26.644  55.201  1.00  0.00     0.010 A 
ATOM     17  O   UNL     1      -9.310  28.380  54.907  1.00  0.00    -0.423 OA
ATOM     18  O   UNL     1      -7.463  28.371  56.197  1.00  0.00    -0.246 OA
ATOM     19  C   UNL     1     -12.238  26.151  54.779  1.00  0.00     0.011 A 
ATOM     20  C   UNL     1     -10.532  27.796  54.570  1.00  0.00     0.137 A 
ATOM     21  C   UNL     1     -12.985  26.785  53.778  1.00  0.00     0.001 A 
ATOM     22  C   UNL     1     -11.263  28.445  53.568  1.00  0.00     0.048 A 
ATOM     23  C   UNL     1     -12.494  27.937  53.171  1.00  0.00     0.004 A 
ATOM     24  O   UNL     1     -10.635  24.901  56.808  1.00  0.00    -0.872 OA
ENDBRANCH   7  13
ENDBRANCH   1   7
BRANCH   3  25
ATOM     25  N   UNL     1      -4.849  23.653  54.521  1.00  0.00     0.062 N 
ATOM     26  O   UNL     1      -5.245  24.227  53.493  1.00  0.00    -0.258 OA
ATOM     27  O   UNL     1      -3.749  23.092  54.619  1.00  0.00    -0.258 OA
ENDBRANCH   3  25
TORSDOF 4
ENDMDL
MODEL 2
REMARK VINA RESULT:   -11.061      0.620      1.941
REMARK INTER + INTRA:         -14.987
REMARK INTER:                 -14.401
REMARK INTRA:                  -0.586
REMARK UNBOUND:                -1.340
REMARK SMILES CC(=O)N[C@@H](c1cccc([N+](=O)[O-])c1)c1c([O-])c2ccccc2oc1=O
REMARK SMILES IDX 6 1 14 2 10 3 9 4 8 5 7 6 5 7 4 8 2 9 3 10 1 11 15 13 16 14
REMARK SMILES IDX 25 15 18 16 24 17 26 18 19 19 23 20 20 21 22 22 21 23 17 24
REMARK SMILES IDX 11 25 12 26 13 27
REMARK H PARENT 4 12
ROOT
ATOM      1  C   UNL     1      -7.506  25.033  57.196  1.00  0.00    -0.014 A 
ATOM      2  C   UNL     1      -6.752  25.039  56.011  1.00  0.00     0.091 A 
ATOM      3  C   UNL     1      -5.957  23.933  55.686  1.00  0.00     0.269 A 
ATOM      4  C   UNL     1      -5.901  22.816  56.531  1.00  0.00     0.085 A 
ATOM      5  C   UNL     1      -6.644  22.809  57.710  1.00  0.00     0.007 A 
ATOM      6  C   UNL     1      -7.436  23.910  58.040  1.00  0.00     0.007 A 
ENDROOT
BRANCH   1   7
ATOM      7  C   UNL     1      -8.370  26.242  57.565  1.00  0.00     0.150 C 
BRANCH   7   8
ATOM      8  N   UNL     1      -8.866  26.089  58.920  1.00  0.00    -0.345 N 
ATOM      9  C   UNL     1      -8.586  26.920  59.961  1.00  0.00     0.217 C 
ATOM     10  O   UNL     1      -7.874  27.917  59.887  1.00  0.00    -0.275 OA
ATOM     11  C   UNL     1      -9.267  26.519  61.241  1.00  0.00     0.114 C 
ATOM     12  H   UNL     1      -9.505  25.290  59.020  1.00  0.00     0.164 HD
ENDBRANCH   7   8
BRANCH   7  13
ATOM     13  C   UNL     1      -9.527  26.463  56.574  1.00  0.00     0.057 A 
ATOM     14  C   UNL     1      -9.562  27.420  55.599  1.00  0.00    -0.085 A 
ATOM     15  C   UNL     1     -10.614  25.470  56.809  1.00  0.00     0.341 A 
ATOM     16  C   UNL     1     -10.815  27.410  54.773  1.00  0.00     0.010 A 
ATOM     17  O   UNL     1     -11.743  25.539  56.019  1.00  0.00    -0.423 OA
ATOM     18  O   UNL     1     -10.539  24.600  57.675  1.00  0.00    -0.246 OA
ATOM     19  C   UNL     1     -11.021  28.324  53.722  1.00  0.00     0.011 A 
ATOM     20  C   UNL     1     -11.836  26.497  55.008  1.00  0.00     0.137 A 
ATOM     21  C   UNL     1     -12.192  28.318  52.954  1.00  0.00     0.001 A 
ATOM     22  C   UNL     1     -13.015  26.473  54.252  1.00  0.00     0.048 A 
ATOM     23  C   UNL     1     -13.192  27.389  53.221  1.00  0.00     0.004 A 
ATOM     24  O   UNL     1      -8.660  28.284  55.357  1.00  0.00    -0.872 OA
ENDBRANCH   7  13
ENDBRANCH   1   7
BRANCH   3  25
ATOM     25  N   UNL     1      -5.169  23.939  54.448  1.00  0.00     0.062 N 
ATOM     26  O   UNL     1      -5.624  24.566  53.477  1.00  0.00    -0.258 OA
ATOM     27  O   UNL     1      -4.094  23.322  54.431  1.00  0.00    -0.258 OA
ENDBRANCH   3  25
TORSDOF 4
ENDMDL
MODEL 3
REMARK VINA RESULT:   -10.890      2.211      2.723
REMARK INTER + INTRA:         -14.776
REMARK INTER:                 -14.139
REMARK INTRA:                  -0.637
REMARK UNBOUND:                -1.340
REMARK SMILES CC(=O)N[C@@H](c1cccc([N+](=O)[O-])c1)c1c([O-])c2ccccc2oc1=O
REMARK SMILES IDX 6 1 14 2 10 3 9 4 8 5 7 6 5 7 4 8 2 9 3 10 1 11 15 13 16 14
REMARK SMILES IDX 25 15 18 16 24 17 26 18 19 19 23 20 20 21 22 22 21 23 17 24
REMARK SMILES IDX 11 25 12 26 13 27
REMARK H PARENT 4 12
ROOT
ATOM      1  C   UNL     1      -8.719  24.922  57.013  1.00  0.00    -0.014 A 
ATOM      2  C   UNL     1      -7.775  24.664  58.020  1.00  0.00     0.091 A 
ATOM      3  C   UNL     1      -6.609  23.950  57.717  1.00  0.00     0.269 A 
ATOM      4  C   UNL     1      -6.370  23.485  56.416  1.00  0.00     0.085 A 
ATOM      5  C   UNL     1      -7.307  23.736  55.415  1.00  0.00     0.007 A 
ATOM      6  C   UNL     1      -8.472  24.444  55.712  1.00  0.00     0.007 A 
ENDROOT
BRANCH   1   7
ATOM      7  C   UNL     1     -10.002  25.692  57.337  1.00  0.00     0.150 C 
BRANCH   7   8
ATOM      8  N   UNL     1     -11.016  24.768  57.810  1.00  0.00    -0.345 N 
ATOM      9  C   UNL     1     -11.309  24.519  59.115  1.00  0.00     0.217 C 
ATOM     10  O   UNL     1     -10.750  25.051  60.070  1.00  0.00    -0.275 OA
ATOM     11  C   UNL     1     -12.430  23.531  59.294  1.00  0.00     0.114 C 
ATOM     12  H   UNL     1     -11.543  24.332  57.042  1.00  0.00     0.164 HD
ENDBRANCH   7   8
BRANCH   7  13
ATOM     13  C   UNL     1     -10.513  26.511  56.140  1.00  0.00     0.057 A 
ATOM     14  C   UNL     1     -11.651  26.249  55.429  1.00  0.00    -0.085 A 
ATOM     15  C   UNL     1      -9.601  27.657  55.861  1.00  0.00     0.341 A 
ATOM     16  C   UNL     1     -11.911  27.212  54.308  1.00  0.00     0.010 A 
ATOM     17  O   UNL     1      -9.900  28.486  54.799  1.00  0.00    -0.423 OA
ATOM     18  O   UNL     1      -8.600  27.886  56.539  1.00  0.00    -0.246 OA
ATOM     19  C   UNL     1     -13.040  27.096  53.473  1.00  0.00     0.011 A 
ATOM     20  C   UNL     1     -11.048  28.267  54.037  1.00  0.00     0.137 A 
ATOM     21  C   UNL     1     -13.280  27.992  52.425  1.00  0.00     0.001 A 
ATOM     22  C   UNL     1     -11.270  29.174  52.994  1.00  0.00     0.048 A 
ATOM     23  C   UNL     1     -12.392  29.035  52.185  1.00  0.00     0.004 A 
ATOM     24  O   UNL     1     -12.461  25.290  55.630  1.00  0.00    -0.872 OA
ENDBRANCH   7  13
ENDBRANCH   1   7
BRANCH   3  25
ATOM     25  N   UNL     1      -5.623  23.681  58.769  1.00  0.00     0.062 N 
ATOM     26  O   UNL     1      -4.474  23.366  58.418  1.00  0.00    -0.258 OA
ATOM     27  O   UNL     1      -5.980  23.783  59.952  1.00  0.00    -0.258 OA
ENDBRANCH   3  25
TORSDOF 4
ENDMDL
MODEL 4
REMARK VINA RESULT:   -10.212      1.496      1.831
REMARK INTER + INTRA:         -13.940
REMARK INTER:                 -12.749
REMARK INTRA:                  -1.191
REMARK UNBOUND:                -1.340
REMARK SMILES CC(=O)N[C@@H](c1cccc([N+](=O)[O-])c1)c1c([O-])c2ccccc2oc1=O
REMARK SMILES IDX 6 1 14 2 10 3 9 4 8 5 7 6 5 7 4 8 2 9 3 10 1 11 15 13 16 14
REMARK SMILES IDX 25 15 18 16 24 17 26 18 19 19 23 20 20 21 22 22 21 23 17 24
REMARK SMILES IDX 11 25 12 26 13 27
REMARK H PARENT 4 12
ROOT
ATOM      1  C   UNL     1      -6.959  25.288  56.443  1.00  0.00    -0.014 A 
ATOM      2  C   UNL     1      -6.496  24.171  57.158  1.00  0.00     0.091 A 
ATOM      3  C   UNL     1      -5.647  23.248  56.535  1.00  0.00     0.269 A 
ATOM      4  C   UNL     1      -5.251  23.423  55.201  1.00  0.00     0.085 A 
ATOM      5  C   UNL     1      -5.713  24.527  54.488  1.00  0.00     0.007 A 
ATOM      6  C   UNL     1      -6.562  25.449  55.103  1.00  0.00     0.007 A 
ENDROOT
BRANCH   1   7
ATOM      7  C   UNL     1      -7.897  26.296  57.112  1.00  0.00     0.150 C 
BRANCH   7   8
ATOM      8  N   UNL     1      -8.393  25.745  58.359  1.00  0.00    -0.345 N 
ATOM      9  C   UNL     1      -8.357  26.371  59.567  1.00  0.00     0.217 C 
ATOM     10  O   UNL     1      -7.901  27.495  59.759  1.00  0.00    -0.275 OA
ATOM     11  C   UNL     1      -8.971  25.560  60.675  1.00  0.00     0.114 C 
ATOM     12  H   UNL     1      -8.827  24.821  58.239  1.00  0.00     0.164 HD
ENDBRANCH   7   8
BRANCH   7  13
ATOM     13  C   UNL     1      -9.057  26.718  56.193  1.00  0.00     0.057 A 
ATOM     14  C   UNL     1     -10.202  26.001  55.983  1.00  0.00    -0.085 A 
ATOM     15  C   UNL     1      -8.772  28.040  55.565  1.00  0.00     0.341 A 
ATOM     16  C   UNL     1     -11.167  26.650  55.036  1.00  0.00     0.010 A 
ATOM     17  O   UNL     1      -9.703  28.560  54.689  1.00  0.00    -0.423 OA
ATOM     18  O   UNL     1      -7.746  28.676  55.798  1.00  0.00    -0.246 OA
ATOM     19  C   UNL     1     -12.400  26.054  54.705  1.00  0.00     0.011 A 
ATOM     20  C   UNL     1     -10.891  27.872  54.435  1.00  0.00     0.137 A 
ATOM     21  C   UNL     1     -13.300  26.657  53.817  1.00  0.00     0.001 A 
ATOM     22  C   UNL     1     -11.776  28.492  53.544  1.00  0.00     0.048 A 
ATOM     23  C   UNL     1     -12.986  27.881  53.235  1.00  0.00     0.004 A 
ATOM     24  O   UNL     1     -10.491  24.875  56.498  1.00  0.00    -0.872 OA
ENDBRANCH   7  13
ENDBRANCH   1   7
BRANCH   3  25
ATOM     25  N   UNL     1      -5.162  22.082  57.282  1.00  0.00     0.062 N 
ATOM     26  O   UNL     1      -4.294  22.271  58.150  1.00  0.00    -0.258 OA
ATOM     27  O   UNL     1      -5.640  20.970  57.013  1.00  0.00    -0.258 OA
ENDBRANCH   3  25
TORSDOF 4
ENDMDL
MODEL 5
REMARK VINA RESULT:   -10.138      1.681      1.974
REMARK INTER + INTRA:         -13.848
REMARK INTER:                 -13.978
REMARK INTRA:                   0.130
REMARK UNBOUND:                -1.340
REMARK SMILES CC(=O)N[C@@H](c1cccc([N+](=O)[O-])c1)c1c([O-])c2ccccc2oc1=O
REMARK SMILES IDX 6 1 14 2 10 3 9 4 8 5 7 6 5 7 4 8 2 9 3 10 1 11 15 13 16 14
REMARK SMILES IDX 25 15 18 16 24 17 26 18 19 19 23 20 20 21 22 22 21 23 17 24
REMARK SMILES IDX 11 25 12 26 13 27
REMARK H PARENT 4 12
ROOT
ATOM      1  C   UNL     1      -8.583  24.917  56.898  1.00  0.00    -0.014 A 
ATOM      2  C   UNL     1      -7.806  25.296  55.792  1.00  0.00     0.091 A 
ATOM      3  C   UNL     1      -6.676  24.546  55.444  1.00  0.00     0.269 A 
ATOM      4  C   UNL     1      -6.305  23.418  56.189  1.00  0.00     0.085 A 
ATOM      5  C   UNL     1      -7.072  23.042  57.291  1.00  0.00     0.007 A 
ATOM      6  C   UNL     1      -8.198  23.787  57.644  1.00  0.00     0.007 A 
ENDROOT
BRANCH   1   7
ATOM      7  C   UNL     1      -9.814  25.737  57.293  1.00  0.00     0.150 C 
BRANCH   7   8
ATOM      8  N   UNL     1     -10.823  24.858  57.856  1.00  0.00    -0.345 N 
ATOM      9  C   UNL     1     -11.118  24.744  59.180  1.00  0.00     0.217 C 
ATOM     10  O   UNL     1     -10.568  25.378  60.076  1.00  0.00    -0.275 OA
ATOM     11  C   UNL     1     -12.231  23.770  59.458  1.00  0.00     0.114 C 
ATOM     12  H   UNL     1     -11.343  24.339  57.137  1.00  0.00     0.164 HD
ENDBRANCH   7   8
BRANCH   7  13
ATOM     13  C   UNL     1     -10.382  26.547  56.115  1.00  0.00     0.057 A 
ATOM     14  C   UNL     1     -11.514  26.237  55.412  1.00  0.00    -0.085 A 
ATOM     15  C   UNL     1      -9.534  27.743  55.845  1.00  0.00     0.341 A 
ATOM     16  C   UNL     1     -11.837  27.203  54.311  1.00  0.00     0.010 A 
ATOM     17  O   UNL     1      -9.888  28.572  54.800  1.00  0.00    -0.423 OA
ATOM     18  O   UNL     1      -8.538  28.013  56.514  1.00  0.00    -0.246 OA
ATOM     19  C   UNL     1     -12.968  27.041  53.486  1.00  0.00     0.011 A 
ATOM     20  C   UNL     1     -11.032  28.305  54.047  1.00  0.00     0.137 A 
ATOM     21  C   UNL     1     -13.267  27.940  52.455  1.00  0.00     0.001 A 
ATOM     22  C   UNL     1     -11.314  29.216  53.021  1.00  0.00     0.048 A 
ATOM     23  C   UNL     1     -12.436  29.031  52.222  1.00  0.00     0.004 A 
ATOM     24  O   UNL     1     -12.271  25.234  55.607  1.00  0.00    -0.872 OA
ENDBRANCH   7  13
ENDBRANCH   1   7
BRANCH   3  25
ATOM     25  N   UNL     1      -5.864  24.942  54.287  1.00  0.00     0.062 N 
ATOM     26  O   UNL     1      -5.055  24.113  53.838  1.00  0.00    -0.258 OA
ATOM     27  O   UNL     1      -6.026  26.076  53.814  1.00  0.00    -0.258 OA
ENDBRANCH   3  25
TORSDOF 4
ENDMDL
MODEL 6
REMARK VINA RESULT:    -9.274      1.974      4.817
REMARK INTER + INTRA:         -12.782
REMARK INTER:                 -11.726
REMARK INTRA:                  -1.056
REMARK UNBOUND:                -1.340
REMARK SMILES CC(=O)N[C@@H](c1cccc([N+](=O)[O-])c1)c1c([O-])c2ccccc2oc1=O
REMARK SMILES IDX 6 1 14 2 10 3 9 4 8 5 7 6 5 7 4 8 2 9 3 10 1 11 15 13 16 14
REMARK SMILES IDX 25 15 18 16 24 17 26 18 19 19 23 20 20 21 22 22 21 23 17 24
REMARK SMILES IDX 11 25 12 26 13 27
REMARK H PARENT 4 12
ROOT
ATOM      1  C   UNL     1      -8.873  26.257  57.842  1.00  0.00    -0.014 A 
ATOM      2  C   UNL     1      -8.293  25.557  58.913  1.00  0.00     0.091 A 
ATOM      3  C   UNL     1      -8.129  26.190  60.152  1.00  0.00     0.269 A 
ATOM      4  C   UNL     1      -8.537  27.518  60.339  1.00  0.00     0.085 A 
ATOM      5  C   UNL     1      -9.108  28.216  59.277  1.00  0.00     0.007 A 
ATOM      6  C   UNL     1      -9.271  27.592  58.039  1.00  0.00     0.007 A 
ENDROOT
BRANCH   1   7
ATOM      7  C   UNL     1      -9.045  25.578  56.481  1.00  0.00     0.150 C 
BRANCH   7   8
ATOM      8  N   UNL     1      -7.785  25.604  55.761  1.00  0.00    -0.345 N 
ATOM      9  C   UNL     1      -6.924  24.557  55.641  1.00  0.00     0.217 C 
ATOM     10  O   UNL     1      -7.105  23.444  56.127  1.00  0.00    -0.275 OA
ATOM     11  C   UNL     1      -5.710  24.878  54.813  1.00  0.00     0.114 C 
ATOM     12  H   UNL     1      -7.612  26.505  55.298  1.00  0.00     0.164 HD
ENDBRANCH   7   8
BRANCH   7  13
ATOM     13  C   UNL     1     -10.172  26.212  55.647  1.00  0.00     0.057 A 
ATOM     14  C   UNL     1     -10.023  27.259  54.781  1.00  0.00    -0.085 A 
ATOM     15  C   UNL     1     -11.465  25.513  55.898  1.00  0.00     0.341 A 
ATOM     16  C   UNL     1     -11.292  27.676  54.098  1.00  0.00     0.010 A 
ATOM     17  O   UNL     1     -12.592  25.971  55.244  1.00  0.00    -0.423 OA
ATOM     18  O   UNL     1     -11.562  24.553  56.660  1.00  0.00    -0.246 OA
ATOM     19  C   UNL     1     -11.324  28.737  53.171  1.00  0.00     0.011 A 
ATOM     20  C   UNL     1     -12.500  27.038  54.349  1.00  0.00     0.137 A 
ATOM     21  C   UNL     1     -12.509  29.130  52.536  1.00  0.00     0.001 A 
ATOM     22  C   UNL     1     -13.696  27.415  53.726  1.00  0.00     0.048 A 
ATOM     23  C   UNL     1     -13.699  28.466  52.815  1.00  0.00     0.004 A 
ATOM     24  O   UNL     1      -8.943  27.883  54.531  1.00  0.00    -0.872 OA
ENDBRANCH   7  13
ENDBRANCH   1   7
BRANCH   3  25
ATOM     25  N   UNL     1      -7.524  25.459  61.271  1.00  0.00     0.062 N 
ATOM     26  O   UNL     1      -8.129  24.465  61.707  1.00  0.00    -0.258 OA
ATOM     27  O   UNL     1      -6.443  25.863  61.723  1.00  0.00    -0.258 OA
ENDBRANCH   3  25
TORSDOF 4
ENDMDL
MODEL 7
REMARK VINA RESULT:    -9.230      2.101      6.212
REMARK INTER + INTRA:         -12.729
REMARK INTER:                 -12.731
REMARK INTRA:                   0.002
REMARK UNBOUND:                -1.340
REMARK SMILES CC(=O)N[C@@H](c1cccc([N+](=O)[O-])c1)c1c([O-])c2ccccc2oc1=O
REMARK SMILES IDX 6 1 14 2 10 3 9 4 8 5 7 6 5 7 4 8 2 9 3 10 1 11 15 13 16 14
REMARK SMILES IDX 25 15 18 16 24 17 26 18 19 19 23 20 20 21 22 22 21 23 17 24
REMARK SMILES IDX 11 25 12 26 13 27
REMARK H PARENT 4 12
ROOT
ATOM      1  C   UNL     1      -8.097  26.400  57.754  1.00  0.00    -0.014 A 
ATOM      2  C   UNL     1      -7.566  25.551  58.739  1.00  0.00     0.091 A 
ATOM      3  C   UNL     1      -7.589  25.943  60.083  1.00  0.00     0.269 A 
ATOM      4  C   UNL     1      -8.135  27.178  60.461  1.00  0.00     0.085 A 
ATOM      5  C   UNL     1      -8.658  28.024  59.486  1.00  0.00     0.007 A 
ATOM      6  C   UNL     1      -8.636  27.640  58.144  1.00  0.00     0.007 A 
ENDROOT
BRANCH   1   7
ATOM      7  C   UNL     1      -8.067  25.984  56.281  1.00  0.00     0.150 C 
BRANCH   7   8
ATOM      8  N   UNL     1      -9.399  25.591  55.859  1.00  0.00    -0.345 N 
ATOM      9  C   UNL     1     -10.362  26.436  55.400  1.00  0.00     0.217 C 
ATOM     10  O   UNL     1     -10.226  27.651  55.278  1.00  0.00    -0.275 OA
ATOM     11  C   UNL     1     -11.634  25.733  55.013  1.00  0.00     0.114 C 
ATOM     12  H   UNL     1      -9.544  24.574  55.901  1.00  0.00     0.164 HD
ENDBRANCH   7   8
BRANCH   7  13
ATOM     13  C   UNL     1      -7.047  24.865  56.007  1.00  0.00     0.057 A 
ATOM     14  C   UNL     1      -7.111  23.595  56.511  1.00  0.00    -0.085 A 
ATOM     15  C   UNL     1      -5.973  25.348  55.093  1.00  0.00     0.341 A 
ATOM     16  C   UNL     1      -5.981  22.707  56.080  1.00  0.00     0.010 A 
ATOM     17  O   UNL     1      -4.958  24.474  54.759  1.00  0.00    -0.423 OA
ATOM     18  O   UNL     1      -5.960  26.487  54.630  1.00  0.00    -0.246 OA
ATOM     19  C   UNL     1      -5.886  21.366  56.501  1.00  0.00     0.011 A 
ATOM     20  C   UNL     1      -4.969  23.165  55.245  1.00  0.00     0.137 A 
ATOM     21  C   UNL     1      -4.830  20.537  56.103  1.00  0.00     0.001 A 
ATOM     22  C   UNL     1      -3.904  22.354  54.835  1.00  0.00     0.048 A 
ATOM     23  C   UNL     1      -3.836  21.034  55.266  1.00  0.00     0.004 A 
ATOM     24  O   UNL     1      -8.006  23.137  57.288  1.00  0.00    -0.872 OA
ENDBRANCH   7  13
ENDBRANCH   1   7
BRANCH   3  25
ATOM     25  N   UNL     1      -7.035  25.056  61.112  1.00  0.00     0.062 N 
ATOM     26  O   UNL     1      -7.670  24.025  61.389  1.00  0.00    -0.258 OA
ATOM     27  O   UNL     1      -5.965  25.375  61.651  1.00  0.00    -0.258 OA
ENDBRANCH   3  25
TORSDOF 4
ENDMDL
MODEL 8
REMARK VINA RESULT:    -9.044      1.897      4.077
REMARK INTER + INTRA:         -12.498
REMARK INTER:                 -12.157
REMARK INTRA:                  -0.342
REMARK UNBOUND:                -1.340
REMARK SMILES CC(=O)N[C@@H](c1cccc([N+](=O)[O-])c1)c1c([O-])c2ccccc2oc1=O
REMARK SMILES IDX 6 1 14 2 10 3 9 4 8 5 7 6 5 7 4 8 2 9 3 10 1 11 15 13 16 14
REMARK SMILES IDX 25 15 18 16 24 17 26 18 19 19 23 20 20 21 22 22 21 23 17 24
REMARK SMILES IDX 11 25 12 26 13 27
REMARK H PARENT 4 12
ROOT
ATOM      1  C   UNL     1      -8.689  25.545  57.942  1.00  0.00    -0.014 A 
ATOM      2  C   UNL     1      -7.584  25.088  58.679  1.00  0.00     0.091 A 
ATOM      3  C   UNL     1      -7.435  25.466  60.019  1.00  0.00     0.269 A 
ATOM      4  C   UNL     1      -8.377  26.299  60.639  1.00  0.00     0.085 A 
ATOM      5  C   UNL     1      -9.473  26.758  59.909  1.00  0.00     0.007 A 
ATOM      6  C   UNL     1      -9.624  26.387  58.572  1.00  0.00     0.007 A 
ENDROOT
BRANCH   1   7
ATOM      7  C   UNL     1      -8.854  25.146  56.473  1.00  0.00     0.150 C 
BRANCH   7   8
ATOM      8  N   UNL     1      -7.548  24.938  55.877  1.00  0.00    -0.345 N 
ATOM      9  C   UNL     1      -6.921  23.737  55.750  1.00  0.00     0.217 C 
ATOM     10  O   UNL     1      -7.386  22.663  56.124  1.00  0.00    -0.275 OA
ATOM     11  C   UNL     1      -5.585  23.832  55.065  1.00  0.00     0.114 C 
ATOM     12  H   UNL     1      -7.138  25.805  55.507  1.00  0.00     0.164 HD
ENDBRANCH   7   8
BRANCH   7  13
ATOM     13  C   UNL     1      -9.670  26.176  55.673  1.00  0.00     0.057 A 
ATOM     14  C   UNL     1     -10.959  26.008  55.249  1.00  0.00    -0.085 A 
ATOM     15  C   UNL     1      -8.865  27.407  55.431  1.00  0.00     0.341 A 
ATOM     16  C   UNL     1     -11.512  27.176  54.487  1.00  0.00     0.010 A 
ATOM     17  O   UNL     1      -9.440  28.430  54.704  1.00  0.00    -0.423 OA
ATOM     18  O   UNL     1      -7.718  27.542  55.853  1.00  0.00    -0.246 OA
ATOM     19  C   UNL     1     -12.825  27.178  53.976  1.00  0.00     0.011 A 
ATOM     20  C   UNL     1     -10.753  28.314  54.244  1.00  0.00     0.137 A 
ATOM     21  C   UNL     1     -13.340  28.266  53.261  1.00  0.00     0.001 A 
ATOM     22  C   UNL     1     -11.248  29.413  53.531  1.00  0.00     0.048 A 
ATOM     23  C   UNL     1     -12.548  29.387  53.038  1.00  0.00     0.004 A 
ATOM     24  O   UNL     1     -11.686  24.981  55.434  1.00  0.00    -0.872 OA
ENDBRANCH   7  13
ENDBRANCH   1   7
BRANCH   3  25
ATOM     25  N   UNL     1      -6.282  24.988  60.789  1.00  0.00     0.062 N 
ATOM     26  O   UNL     1      -5.653  24.013  60.344  1.00  0.00    -0.258 OA
ATOM     27  O   UNL     1      -5.990  25.577  61.840  1.00  0.00    -0.258 OA
ENDBRANCH   3  25
TORSDOF 4
ENDMDL
MODEL 9
REMARK VINA RESULT:    -9.012      2.355      6.416
REMARK INTER + INTRA:         -12.460
REMARK INTER:                 -12.974
REMARK INTRA:                   0.515
REMARK UNBOUND:                -1.340
REMARK SMILES CC(=O)N[C@@H](c1cccc([N+](=O)[O-])c1)c1c([O-])c2ccccc2oc1=O
REMARK SMILES IDX 6 1 14 2 10 3 9 4 8 5 7 6 5 7 4 8 2 9 3 10 1 11 15 13 16 14
REMARK SMILES IDX 25 15 18 16 24 17 26 18 19 19 23 20 20 21 22 22 21 23 17 24
REMARK SMILES IDX 11 25 12 26 13 27
REMARK H PARENT 4 12
ROOT
ATOM      1  C   UNL     1      -8.896  25.814  57.177  1.00  0.00    -0.014 A 
ATOM      2  C   UNL     1     -10.166  25.604  56.615  1.00  0.00     0.091 A 
ATOM      3  C   UNL     1     -10.674  26.515  55.680  1.00  0.00     0.269 A 
ATOM      4  C   UNL     1      -9.929  27.639  55.296  1.00  0.00     0.085 A 
ATOM      5  C   UNL     1      -8.671  27.853  55.855  1.00  0.00     0.007 A 
ATOM      6  C   UNL     1      -8.161  26.950  56.790  1.00  0.00     0.007 A 
ENDROOT
BRANCH   1   7
ATOM      7  C   UNL     1      -8.337  24.830  58.208  1.00  0.00     0.150 C 
BRANCH   7   8
ATOM      8  N   UNL     1      -7.875  25.559  59.375  1.00  0.00    -0.345 N 
ATOM      9  C   UNL     1      -8.641  25.895  60.448  1.00  0.00     0.217 C 
ATOM     10  O   UNL     1      -9.832  25.619  60.571  1.00  0.00    -0.275 OA
ATOM     11  C   UNL     1      -7.877  26.627  61.518  1.00  0.00     0.114 C 
ATOM     12  H   UNL     1      -6.871  25.772  59.337  1.00  0.00     0.164 HD
ENDBRANCH   7   8
BRANCH   7  13
ATOM     13  C   UNL     1      -7.218  23.946  57.630  1.00  0.00     0.057 A 
ATOM     14  C   UNL     1      -6.662  24.083  56.388  1.00  0.00    -0.085 A 
ATOM     15  C   UNL     1      -6.802  22.913  58.621  1.00  0.00     0.341 A 
ATOM     16  C   UNL     1      -5.587  23.081  56.083  1.00  0.00     0.010 A 
ATOM     17  O   UNL     1      -5.819  22.016  58.256  1.00  0.00    -0.423 OA
ATOM     18  O   UNL     1      -7.300  22.834  59.743  1.00  0.00    -0.246 OA
ATOM     19  C   UNL     1      -4.903  23.075  54.851  1.00  0.00     0.011 A 
ATOM     20  C   UNL     1      -5.216  22.106  57.001  1.00  0.00     0.137 A 
ATOM     21  C   UNL     1      -3.904  22.138  54.564  1.00  0.00     0.001 A 
ATOM     22  C   UNL     1      -4.219  21.160  56.734  1.00  0.00     0.048 A 
ATOM     23  C   UNL     1      -3.561  21.177  55.509  1.00  0.00     0.004 A 
ATOM     24  O   UNL     1      -6.979  24.947  55.512  1.00  0.00    -0.872 OA
ENDBRANCH   7  13
ENDBRANCH   1   7
BRANCH   3  25
ATOM     25  N   UNL     1     -12.000  26.295  55.092  1.00  0.00     0.062 N 
ATOM     26  O   UNL     1     -12.992  26.580  55.783  1.00  0.00    -0.258 OA
ATOM     27  O   UNL     1     -12.066  25.841  53.941  1.00  0.00    -0.258 OA
ENDBRANCH   3  25
TORSDOF 4
ENDMDL
