REMARK SMILES CC(=O)N[C@@H](c1cccc([N+](=O)[O-])c1)c1c([O-])c2ccccc2oc1=O
REMARK SMILES IDX 6 1 14 2 10 3 9 4 8 5 7 6 5 7 4 8 2 9 3 10 1 11 15 13 16 14
REMARK SMILES IDX 25 15 18 16 24 17 26 18 19 19 23 20 20 21 22 22 21 23 17 24
REMARK SMILES IDX 11 25 12 26 13 27
REMARK H PARENT 4 12
ROOT
ATOM      1  C   UNL     1      -1.677  -0.288  -0.221  1.00  0.00    -0.014 A 
ATOM      2  C   UNL     1      -2.828  -0.870   0.335  1.00  0.00     0.091 A 
ATOM      3  C   UNL     1      -3.652  -1.679  -0.457  1.00  0.00     0.269 A 
ATOM      4  C   UNL     1      -3.344  -1.917  -1.804  1.00  0.00     0.085 A 
ATOM      5  C   UNL     1      -2.205  -1.337  -2.360  1.00  0.00     0.007 A 
ATOM      6  C   UNL     1      -1.382  -0.527  -1.576  1.00  0.00     0.007 A 
ENDROOT
BRANCH   1   7
ATOM      7  C   UNL     1      -0.776   0.607   0.634  1.00  0.00     0.150 C 
BRANCH   7   8
ATOM      8  N   UNL     1      -0.823   1.967   0.130  1.00  0.00    -0.345 N 
ATOM      9  C   UNL     1      -1.823   2.860   0.363  1.00  0.00     0.217 C 
ATOM     10  O   UNL     1      -2.822   2.630   1.039  1.00  0.00    -0.275 OA
ATOM     11  C   UNL     1      -1.580   4.203  -0.270  1.00  0.00     0.114 C 
ATOM     12  H   UNL     1       0.017   2.220  -0.406  1.00  0.00     0.164 HD
ENDBRANCH   7   8
BRANCH   7  13
ATOM     13  C   UNL     1       0.672   0.091   0.700  1.00  0.00     0.057 A 
ATOM     14  C   UNL     1       1.726   0.597  -0.009  1.00  0.00    -0.085 A 
ATOM     15  C   UNL     1       0.781  -1.040   1.665  1.00  0.00     0.341 A 
ATOM     16  C   UNL     1       3.030  -0.099   0.249  1.00  0.00     0.010 A 
ATOM     17  O   UNL     1       2.013  -1.640   1.831  1.00  0.00    -0.423 OA
ATOM     18  O   UNL     1      -0.180  -1.453   2.312  1.00  0.00    -0.246 OA
ATOM     19  C   UNL     1       4.222   0.291  -0.393  1.00  0.00     0.011 A 
ATOM     20  C   UNL     1       3.125  -1.167   1.133  1.00  0.00     0.137 A 
ATOM     21  C   UNL     1       5.438  -0.361  -0.156  1.00  0.00     0.001 A 
ATOM     22  C   UNL     1       4.331  -1.833   1.384  1.00  0.00     0.048 A 
ATOM     23  C   UNL     1       5.492  -1.427   0.736  1.00  0.00     0.004 A 
ATOM     24  O   UNL     1       1.684   1.560  -0.838  1.00  0.00    -0.872 OA
ENDBRANCH   7  13
ENDBRANCH   1   7
BRANCH   3  25
ATOM     25  N   UNL     1      -4.854  -2.288   0.124  1.00  0.00     0.062 N 
ATOM     26  O   UNL     1      -5.573  -2.973  -0.622  1.00  0.00    -0.258 OA
ATOM     27  O   UNL     1      -5.091  -2.093   1.325  1.00  0.00    -0.258 OA
ENDBRANCH   3  25
TORSDOF 4
