MODEL 1
REMARK VINA RESULT:   -11.112      0.000      0.000
REMARK INTER + INTRA:         -14.864
REMARK INTER:                 -13.711
REMARK INTRA:                  -1.153
REMARK UNBOUND:                -1.153
REMARK SMILES CC(=O)N[C@H](c1cccc([N+](=O)[O-])c1)c1c([O-])c2ccccc2oc1=O
REMARK SMILES IDX 6 1 14 2 10 3 9 4 8 5 7 6 5 7 4 8 2 9 3 10 1 11 15 13 16 14
REMARK SMILES IDX 25 15 18 16 24 17 26 18 19 19 23 20 20 21 22 22 21 23 17 24
REMARK SMILES IDX 11 25 12 26 13 27
REMARK H PARENT 4 12
ROOT
ATOM      1  C   UNL     1      -9.228  25.990  56.990  1.00  0.00    -0.014 A 
ATOM      2  C   UNL     1      -9.519  26.852  55.921  1.00  0.00     0.091 A 
ATOM      3  C   UNL     1     -10.805  26.865  55.365  1.00  0.00     0.269 A 
ATOM      4  C   UNL     1     -11.811  26.027  55.865  1.00  0.00     0.085 A 
ATOM      5  C   UNL     1     -11.527  25.173  56.929  1.00  0.00     0.007 A 
ATOM      6  C   UNL     1     -10.249  25.157  57.488  1.00  0.00     0.007 A 
ENDROOT
BRANCH   1   7
ATOM      7  C   UNL     1      -7.829  25.975  57.610  1.00  0.00     0.150 C 
BRANCH   7   8
ATOM      8  N   UNL     1      -7.934  25.765  59.043  1.00  0.00    -0.345 N 
ATOM      9  C   UNL     1      -8.028  26.748  59.979  1.00  0.00     0.217 C 
ATOM     10  O   UNL     1      -8.030  27.951  59.732  1.00  0.00    -0.275 OA
ATOM     11  C   UNL     1      -8.097  26.224  61.387  1.00  0.00     0.114 C 
ATOM     12  H   UNL     1      -7.892  24.771  59.302  1.00  0.00     0.164 HD
ENDBRANCH   7   8
BRANCH   7  13
ATOM     13  C   UNL     1      -6.910  24.925  56.963  1.00  0.00     0.057 A 
ATOM     14  C   UNL     1      -6.807  23.618  57.350  1.00  0.00    -0.085 A 
ATOM     15  C   UNL     1      -6.123  25.530  55.852  1.00  0.00     0.341 A 
ATOM     16  C   UNL     1      -5.831  22.813  56.542  1.00  0.00     0.010 A 
ATOM     17  O   UNL     1      -5.261  24.719  55.143  1.00  0.00    -0.423 OA
ATOM     18  O   UNL     1      -6.216  26.720  55.548  1.00  0.00    -0.246 OA
ATOM     19  C   UNL     1      -5.594  21.450  56.803  1.00  0.00     0.011 A 
ATOM     20  C   UNL     1      -5.115  23.376  55.493  1.00  0.00     0.137 A 
ATOM     21  C   UNL     1      -4.686  20.698  56.046  1.00  0.00     0.001 A 
ATOM     22  C   UNL     1      -4.203  22.642  54.723  1.00  0.00     0.048 A 
ATOM     23  C   UNL     1      -3.989  21.296  55.002  1.00  0.00     0.004 A 
ATOM     24  O   UNL     1      -7.451  23.057  58.292  1.00  0.00    -0.872 OA
ENDBRANCH   7  13
ENDBRANCH   1   7
BRANCH   3  25
ATOM     25  N   UNL     1     -11.109  27.766  54.247  1.00  0.00     0.062 N 
ATOM     26  O   UNL     1     -11.954  27.392  53.418  1.00  0.00    -0.258 OA
ATOM     27  O   UNL     1     -10.508  28.849  54.184  1.00  0.00    -0.258 OA
ENDBRANCH   3  25
TORSDOF 4
ENDMDL
MODEL 2
REMARK VINA RESULT:   -11.094      1.899      2.398
REMARK INTER + INTRA:         -14.841
REMARK INTER:                 -13.750
REMARK INTRA:                  -1.091
REMARK UNBOUND:                -1.153
REMARK SMILES CC(=O)N[C@H](c1cccc([N+](=O)[O-])c1)c1c([O-])c2ccccc2oc1=O
REMARK SMILES IDX 6 1 14 2 10 3 9 4 8 5 7 6 5 7 4 8 2 9 3 10 1 11 15 13 16 14
REMARK SMILES IDX 25 15 18 16 24 17 26 18 19 19 23 20 20 21 22 22 21 23 17 24
REMARK SMILES IDX 11 25 12 26 13 27
REMARK H PARENT 4 12
ROOT
ATOM      1  C   UNL     1      -9.191  25.816  57.192  1.00  0.00    -0.014 A 
ATOM      2  C   UNL     1     -10.071  24.990  57.912  1.00  0.00     0.091 A 
ATOM      3  C   UNL     1     -11.405  24.868  57.503  1.00  0.00     0.269 A 
ATOM      4  C   UNL     1     -11.878  25.562  56.380  1.00  0.00     0.085 A 
ATOM      5  C   UNL     1     -11.006  26.379  55.662  1.00  0.00     0.007 A 
ATOM      6  C   UNL     1      -9.676  26.502  56.063  1.00  0.00     0.007 A 
ENDROOT
BRANCH   1   7
ATOM      7  C   UNL     1      -7.730  25.947  57.626  1.00  0.00     0.150 C 
BRANCH   7   8
ATOM      8  N   UNL     1      -7.645  25.877  59.074  1.00  0.00    -0.345 N 
ATOM      9  C   UNL     1      -8.011  26.865  59.934  1.00  0.00     0.217 C 
ATOM     10  O   UNL     1      -8.459  27.958  59.595  1.00  0.00    -0.275 OA
ATOM     11  C   UNL     1      -7.783  26.513  61.379  1.00  0.00     0.114 C 
ATOM     12  H   UNL     1      -7.232  24.995  59.405  1.00  0.00     0.164 HD
ENDBRANCH   7   8
BRANCH   7  13
ATOM     13  C   UNL     1      -6.824  24.893  56.967  1.00  0.00     0.057 A 
ATOM     14  C   UNL     1      -6.678  23.601  57.388  1.00  0.00    -0.085 A 
ATOM     15  C   UNL     1      -6.101  25.478  55.803  1.00  0.00     0.341 A 
ATOM     16  C   UNL     1      -5.727  22.788  56.558  1.00  0.00     0.010 A 
ATOM     17  O   UNL     1      -5.259  24.660  55.077  1.00  0.00    -0.423 OA
ATOM     18  O   UNL     1      -6.230  26.656  55.468  1.00  0.00    -0.246 OA
ATOM     19  C   UNL     1      -5.454  21.438  56.847  1.00  0.00     0.011 A 
ATOM     20  C   UNL     1      -5.072  23.331  55.459  1.00  0.00     0.137 A 
ATOM     21  C   UNL     1      -4.569  20.678  56.071  1.00  0.00     0.001 A 
ATOM     22  C   UNL     1      -4.184  22.589  54.669  1.00  0.00     0.048 A 
ATOM     23  C   UNL     1      -3.933  21.256  54.977  1.00  0.00     0.004 A 
ATOM     24  O   UNL     1      -7.267  23.057  58.375  1.00  0.00    -0.872 OA
ENDBRANCH   7  13
ENDBRANCH   1   7
BRANCH   3  25
ATOM     25  N   UNL     1     -12.324  24.005  58.254  1.00  0.00     0.062 N 
ATOM     26  O   UNL     1     -13.542  24.215  58.133  1.00  0.00    -0.258 OA
ATOM     27  O   UNL     1     -11.842  23.117  58.972  1.00  0.00    -0.258 OA
ENDBRANCH   3  25
TORSDOF 4
ENDMDL
MODEL 3
REMARK VINA RESULT:   -10.847      2.204      6.484
REMARK INTER + INTRA:         -14.537
REMARK INTER:                 -14.229
REMARK INTRA:                  -0.308
REMARK UNBOUND:                -1.153
REMARK SMILES CC(=O)N[C@H](c1cccc([N+](=O)[O-])c1)c1c([O-])c2ccccc2oc1=O
REMARK SMILES IDX 6 1 14 2 10 3 9 4 8 5 7 6 5 7 4 8 2 9 3 10 1 11 15 13 16 14
REMARK SMILES IDX 25 15 18 16 24 17 26 18 19 19 23 20 20 21 22 22 21 23 17 24
REMARK SMILES IDX 11 25 12 26 13 27
REMARK H PARENT 4 12
ROOT
ATOM      1  C   UNL     1      -8.319  24.782  57.080  1.00  0.00    -0.014 A 
ATOM      2  C   UNL     1      -7.266  24.510  57.969  1.00  0.00     0.091 A 
ATOM      3  C   UNL     1      -6.190  23.714  57.555  1.00  0.00     0.269 A 
ATOM      4  C   UNL     1      -6.148  23.184  56.258  1.00  0.00     0.085 A 
ATOM      5  C   UNL     1      -7.189  23.455  55.371  1.00  0.00     0.007 A 
ATOM      6  C   UNL     1      -8.261  24.249  55.778  1.00  0.00     0.007 A 
ENDROOT
BRANCH   1   7
ATOM      7  C   UNL     1      -9.493  25.657  57.521  1.00  0.00     0.150 C 
BRANCH   7   8
ATOM      8  N   UNL     1      -9.046  26.592  58.538  1.00  0.00    -0.345 N 
ATOM      9  C   UNL     1      -9.107  26.384  59.881  1.00  0.00     0.217 C 
ATOM     10  O   UNL     1      -9.558  25.372  60.413  1.00  0.00    -0.275 OA
ATOM     11  C   UNL     1      -8.594  27.545  60.688  1.00  0.00     0.114 C 
ATOM     12  H   UNL     1      -8.702  27.476  58.141  1.00  0.00     0.164 HD
ENDBRANCH   7   8
BRANCH   7  13
ATOM     13  C   UNL     1     -10.152  26.395  56.343  1.00  0.00     0.057 A 
ATOM     14  C   UNL     1     -11.353  26.070  55.776  1.00  0.00    -0.085 A 
ATOM     15  C   UNL     1      -9.290  27.520  55.882  1.00  0.00     0.341 A 
ATOM     16  C   UNL     1     -11.758  26.962  54.639  1.00  0.00     0.010 A 
ATOM     17  O   UNL     1      -9.743  28.308  54.843  1.00  0.00    -0.423 OA
ATOM     18  O   UNL     1      -8.198  27.769  56.394  1.00  0.00    -0.246 OA
ATOM     19  C   UNL     1     -12.963  26.771  53.936  1.00  0.00     0.011 A 
ATOM     20  C   UNL     1     -10.962  28.023  54.226  1.00  0.00     0.137 A 
ATOM     21  C   UNL     1     -13.343  27.606  52.877  1.00  0.00     0.001 A 
ATOM     22  C   UNL     1     -11.323  28.870  53.171  1.00  0.00     0.048 A 
ATOM     23  C   UNL     1     -12.520  28.660  52.494  1.00  0.00     0.004 A 
ATOM     24  O   UNL     1     -12.120  25.119  56.129  1.00  0.00    -0.872 OA
ENDBRANCH   7  13
ENDBRANCH   1   7
BRANCH   3  25
ATOM     25  N   UNL     1      -5.091  23.430  58.485  1.00  0.00     0.062 N 
ATOM     26  O   UNL     1      -3.977  23.171  58.000  1.00  0.00    -0.258 OA
ATOM     27  O   UNL     1      -5.328  23.459  59.701  1.00  0.00    -0.258 OA
ENDBRANCH   3  25
TORSDOF 4
ENDMDL
MODEL 4
REMARK VINA RESULT:   -10.838      2.260      6.281
REMARK INTER + INTRA:         -14.525
REMARK INTER:                 -13.781
REMARK INTRA:                  -0.745
REMARK UNBOUND:                -1.153
REMARK SMILES CC(=O)N[C@H](c1cccc([N+](=O)[O-])c1)c1c([O-])c2ccccc2oc1=O
REMARK SMILES IDX 6 1 14 2 10 3 9 4 8 5 7 6 5 7 4 8 2 9 3 10 1 11 15 13 16 14
REMARK SMILES IDX 25 15 18 16 24 17 26 18 19 19 23 20 20 21 22 22 21 23 17 24
REMARK SMILES IDX 11 25 12 26 13 27
REMARK H PARENT 4 12
ROOT
ATOM      1  C   UNL     1      -8.420  24.739  57.203  1.00  0.00    -0.014 A 
ATOM      2  C   UNL     1      -7.657  25.187  56.112  1.00  0.00     0.091 A 
ATOM      3  C   UNL     1      -6.563  24.432  55.669  1.00  0.00     0.269 A 
ATOM      4  C   UNL     1      -6.219  23.229  56.301  1.00  0.00     0.085 A 
ATOM      5  C   UNL     1      -6.977  22.780  57.381  1.00  0.00     0.007 A 
ATOM      6  C   UNL     1      -8.068  23.526  57.825  1.00  0.00     0.007 A 
ENDROOT
BRANCH   1   7
ATOM      7  C   UNL     1      -9.622  25.552  57.688  1.00  0.00     0.150 C 
BRANCH   7   8
ATOM      8  N   UNL     1      -9.164  26.633  58.542  1.00  0.00    -0.345 N 
ATOM      9  C   UNL     1      -8.940  26.539  59.881  1.00  0.00     0.217 C 
ATOM     10  O   UNL     1      -9.104  25.520  60.548  1.00  0.00    -0.275 OA
ATOM     11  C   UNL     1      -8.495  27.834  60.503  1.00  0.00     0.114 C 
ATOM     12  H   UNL     1      -9.056  27.521  58.036  1.00  0.00     0.164 HD
ENDBRANCH   7   8
BRANCH   7  13
ATOM     13  C   UNL     1     -10.476  26.090  56.527  1.00  0.00     0.057 A 
ATOM     14  C   UNL     1     -10.154  27.157  55.736  1.00  0.00    -0.085 A 
ATOM     15  C   UNL     1     -11.726  25.293  56.383  1.00  0.00     0.341 A 
ATOM     16  C   UNL     1     -11.171  27.464  54.674  1.00  0.00     0.010 A 
ATOM     17  O   UNL     1     -12.602  25.625  55.369  1.00  0.00    -0.423 OA
ATOM     18  O   UNL     1     -12.003  24.355  57.132  1.00  0.00    -0.246 OA
ATOM     19  C   UNL     1     -11.004  28.532  53.771  1.00  0.00     0.011 A 
ATOM     20  C   UNL     1     -12.325  26.705  54.530  1.00  0.00     0.137 A 
ATOM     21  C   UNL     1     -11.951  28.816  52.778  1.00  0.00     0.001 A 
ATOM     22  C   UNL     1     -13.284  26.971  53.544  1.00  0.00     0.048 A 
ATOM     23  C   UNL     1     -13.094  28.032  52.664  1.00  0.00     0.004 A 
ATOM     24  O   UNL     1      -9.104  27.870  55.820  1.00  0.00    -0.872 OA
ENDBRANCH   7  13
ENDBRANCH   1   7
BRANCH   3  25
ATOM     25  N   UNL     1      -5.766  24.900  54.529  1.00  0.00     0.062 N 
ATOM     26  O   UNL     1      -5.864  26.097  54.210  1.00  0.00    -0.258 OA
ATOM     27  O   UNL     1      -5.042  24.083  53.943  1.00  0.00    -0.258 OA
ENDBRANCH   3  25
TORSDOF 4
ENDMDL
MODEL 5
REMARK VINA RESULT:   -10.301      0.762      2.098
REMARK INTER + INTRA:         -13.863
REMARK INTER:                 -13.550
REMARK INTRA:                  -0.313
REMARK UNBOUND:                -1.153
REMARK SMILES CC(=O)N[C@H](c1cccc([N+](=O)[O-])c1)c1c([O-])c2ccccc2oc1=O
REMARK SMILES IDX 6 1 14 2 10 3 9 4 8 5 7 6 5 7 4 8 2 9 3 10 1 11 15 13 16 14
REMARK SMILES IDX 25 15 18 16 24 17 26 18 19 19 23 20 20 21 22 22 21 23 17 24
REMARK SMILES IDX 11 25 12 26 13 27
REMARK H PARENT 4 12
ROOT
ATOM      1  C   UNL     1      -9.858  26.175  56.880  1.00  0.00    -0.014 A 
ATOM      2  C   UNL     1      -9.985  27.011  55.758  1.00  0.00     0.091 A 
ATOM      3  C   UNL     1     -11.194  27.051  55.051  1.00  0.00     0.269 A 
ATOM      4  C   UNL     1     -12.284  26.266  55.450  1.00  0.00     0.085 A 
ATOM      5  C   UNL     1     -12.163  25.439  56.565  1.00  0.00     0.007 A 
ATOM      6  C   UNL     1     -10.962  25.397  57.274  1.00  0.00     0.007 A 
ENDROOT
BRANCH   1   7
ATOM      7  C   UNL     1      -8.545  26.132  57.664  1.00  0.00     0.150 C 
BRANCH   7   8
ATOM      8  N   UNL     1      -8.830  26.020  59.083  1.00  0.00    -0.345 N 
ATOM      9  C   UNL     1      -8.486  26.935  60.030  1.00  0.00     0.217 C 
ATOM     10  O   UNL     1      -7.879  27.979  59.807  1.00  0.00    -0.275 OA
ATOM     11  C   UNL     1      -8.892  26.533  61.422  1.00  0.00     0.114 C 
ATOM     12  H   UNL     1      -9.298  25.138  59.326  1.00  0.00     0.164 HD
ENDBRANCH   7   8
BRANCH   7  13
ATOM     13  C   UNL     1      -7.617  24.997  57.196  1.00  0.00     0.057 A 
ATOM     14  C   UNL     1      -6.724  25.079  56.163  1.00  0.00    -0.085 A 
ATOM     15  C   UNL     1      -7.832  23.773  58.016  1.00  0.00     0.341 A 
ATOM     16  C   UNL     1      -5.945  23.819  55.924  1.00  0.00     0.010 A 
ATOM     17  O   UNL     1      -7.061  22.660  57.746  1.00  0.00    -0.423 OA
ATOM     18  O   UNL     1      -8.667  23.720  58.920  1.00  0.00    -0.246 OA
ATOM     19  C   UNL     1      -4.984  23.722  54.899  1.00  0.00     0.011 A 
ATOM     20  C   UNL     1      -6.133  22.686  56.705  1.00  0.00     0.137 A 
ATOM     21  C   UNL     1      -4.254  22.547  54.677  1.00  0.00     0.001 A 
ATOM     22  C   UNL     1      -5.413  21.502  56.501  1.00  0.00     0.048 A 
ATOM     23  C   UNL     1      -4.469  21.434  55.482  1.00  0.00     0.004 A 
ATOM     24  O   UNL     1      -6.508  26.097  55.433  1.00  0.00    -0.872 OA
ENDBRANCH   7  13
ENDBRANCH   1   7
BRANCH   3  25
ATOM     25  N   UNL     1     -11.326  27.925  53.879  1.00  0.00     0.062 N 
ATOM     26  O   UNL     1     -10.662  28.975  53.865  1.00  0.00    -0.258 OA
ATOM     27  O   UNL     1     -12.091  27.576  52.969  1.00  0.00    -0.258 OA
ENDBRANCH   3  25
TORSDOF 4
ENDMDL
MODEL 6
REMARK VINA RESULT:   -10.270      2.346      5.998
REMARK INTER + INTRA:         -13.825
REMARK INTER:                 -13.329
REMARK INTRA:                  -0.496
REMARK UNBOUND:                -1.153
REMARK SMILES CC(=O)N[C@H](c1cccc([N+](=O)[O-])c1)c1c([O-])c2ccccc2oc1=O
REMARK SMILES IDX 6 1 14 2 10 3 9 4 8 5 7 6 5 7 4 8 2 9 3 10 1 11 15 13 16 14
REMARK SMILES IDX 25 15 18 16 24 17 26 18 19 19 23 20 20 21 22 22 21 23 17 24
REMARK SMILES IDX 11 25 12 26 13 27
REMARK H PARENT 4 12
ROOT
ATOM      1  C   UNL     1      -6.559  24.064  57.994  1.00  0.00    -0.014 A 
ATOM      2  C   UNL     1      -6.389  24.242  56.611  1.00  0.00     0.091 A 
ATOM      3  C   UNL     1      -5.277  23.681  55.968  1.00  0.00     0.269 A 
ATOM      4  C   UNL     1      -4.329  22.941  56.688  1.00  0.00     0.085 A 
ATOM      5  C   UNL     1      -4.498  22.760  58.060  1.00  0.00     0.007 A 
ATOM      6  C   UNL     1      -5.604  23.314  58.705  1.00  0.00     0.007 A 
ENDROOT
BRANCH   1   7
ATOM      7  C   UNL     1      -7.775  24.665  58.703  1.00  0.00     0.150 C 
BRANCH   7   8
ATOM      8  N   UNL     1      -7.334  25.663  59.661  1.00  0.00    -0.345 N 
ATOM      9  C   UNL     1      -7.782  25.779  60.941  1.00  0.00     0.217 C 
ATOM     10  O   UNL     1      -8.630  25.053  61.454  1.00  0.00    -0.275 OA
ATOM     11  C   UNL     1      -7.160  26.928  61.688  1.00  0.00     0.114 C 
ATOM     12  H   UNL     1      -6.655  26.324  59.262  1.00  0.00     0.164 HD
ENDBRANCH   7   8
BRANCH   7  13
ATOM     13  C   UNL     1      -8.797  25.258  57.718  1.00  0.00     0.057 A 
ATOM     14  C   UNL     1      -8.579  26.334  56.903  1.00  0.00    -0.085 A 
ATOM     15  C   UNL     1     -10.081  24.506  57.780  1.00  0.00     0.341 A 
ATOM     16  C   UNL     1      -9.752  26.699  56.041  1.00  0.00     0.010 A 
ATOM     17  O   UNL     1     -11.107  24.891  56.940  1.00  0.00    -0.423 OA
ATOM     18  O   UNL     1     -10.257  23.559  58.548  1.00  0.00    -0.246 OA
ATOM     19  C   UNL     1      -9.706  27.783  55.143  1.00  0.00     0.011 A 
ATOM     20  C   UNL     1     -10.941  25.982  56.086  1.00  0.00     0.137 A 
ATOM     21  C   UNL     1     -10.800  28.122  54.335  1.00  0.00     0.001 A 
ATOM     22  C   UNL     1     -12.045  26.303  55.287  1.00  0.00     0.048 A 
ATOM     23  C   UNL     1     -11.973  27.378  54.407  1.00  0.00     0.004 A 
ATOM     24  O   UNL     1      -7.505  27.010  56.818  1.00  0.00    -0.872 OA
ENDBRANCH   7  13
ENDBRANCH   1   7
BRANCH   3  25
ATOM     25  N   UNL     1      -5.099  23.867  54.523  1.00  0.00     0.062 N 
ATOM     26  O   UNL     1      -5.788  24.737  53.964  1.00  0.00    -0.258 OA
ATOM     27  O   UNL     1      -4.278  23.148  53.934  1.00  0.00    -0.258 OA
ENDBRANCH   3  25
TORSDOF 4
ENDMDL
MODEL 7
REMARK VINA RESULT:   -10.181      2.089      3.129
REMARK INTER + INTRA:         -13.715
REMARK INTER:                 -13.413
REMARK INTRA:                  -0.301
REMARK UNBOUND:                -1.153
REMARK SMILES CC(=O)N[C@H](c1cccc([N+](=O)[O-])c1)c1c([O-])c2ccccc2oc1=O
REMARK SMILES IDX 6 1 14 2 10 3 9 4 8 5 7 6 5 7 4 8 2 9 3 10 1 11 15 13 16 14
REMARK SMILES IDX 25 15 18 16 24 17 26 18 19 19 23 20 20 21 22 22 21 23 17 24
REMARK SMILES IDX 11 25 12 26 13 27
REMARK H PARENT 4 12
ROOT
ATOM      1  C   UNL     1      -9.110  25.559  57.403  1.00  0.00    -0.014 A 
ATOM      2  C   UNL     1     -10.070  24.803  58.096  1.00  0.00     0.091 A 
ATOM      3  C   UNL     1     -11.388  24.749  57.624  1.00  0.00     0.269 A 
ATOM      4  C   UNL     1     -11.764  25.441  56.464  1.00  0.00     0.085 A 
ATOM      5  C   UNL     1     -10.812  26.189  55.773  1.00  0.00     0.007 A 
ATOM      6  C   UNL     1      -9.498  26.245  56.236  1.00  0.00     0.007 A 
ENDROOT
BRANCH   1   7
ATOM      7  C   UNL     1      -7.666  25.617  57.906  1.00  0.00     0.150 C 
BRANCH   7   8
ATOM      8  N   UNL     1      -7.658  25.629  59.358  1.00  0.00    -0.345 N 
ATOM      9  C   UNL     1      -7.834  26.730  60.138  1.00  0.00     0.217 C 
ATOM     10  O   UNL     1      -8.018  27.867  59.712  1.00  0.00    -0.275 OA
ATOM     11  C   UNL     1      -7.747  26.436  61.611  1.00  0.00     0.114 C 
ATOM     12  H   UNL     1      -7.461  24.704  59.762  1.00  0.00     0.164 HD
ENDBRANCH   7   8
BRANCH   7  13
ATOM     13  C   UNL     1      -6.806  24.465  57.359  1.00  0.00     0.057 A 
ATOM     14  C   UNL     1      -6.110  24.486  56.182  1.00  0.00    -0.085 A 
ATOM     15  C   UNL     1      -6.842  23.298  58.284  1.00  0.00     0.341 A 
ATOM     16  C   UNL     1      -5.353  23.223  55.893  1.00  0.00     0.010 A 
ATOM     17  O   UNL     1      -6.102  22.180  57.957  1.00  0.00    -0.423 OA
ATOM     18  O   UNL     1      -7.504  23.298  59.323  1.00  0.00    -0.246 OA
ATOM     19  C   UNL     1      -4.584  23.068  54.723  1.00  0.00     0.011 A 
ATOM     20  C   UNL     1      -5.372  22.145  56.769  1.00  0.00     0.137 A 
ATOM     21  C   UNL     1      -3.874  21.890  54.455  1.00  0.00     0.001 A 
ATOM     22  C   UNL     1      -4.668  20.959  56.521  1.00  0.00     0.048 A 
ATOM     23  C   UNL     1      -3.916  20.833  55.358  1.00  0.00     0.004 A 
ATOM     24  O   UNL     1      -6.051  25.453  55.358  1.00  0.00    -0.872 OA
ENDBRANCH   7  13
ENDBRANCH   1   7
BRANCH   3  25
ATOM     25  N   UNL     1     -12.391  23.959  58.347  1.00  0.00     0.062 N 
ATOM     26  O   UNL     1     -11.982  23.070  59.114  1.00  0.00    -0.258 OA
ATOM     27  O   UNL     1     -13.589  24.213  58.157  1.00  0.00    -0.258 OA
ENDBRANCH   3  25
TORSDOF 4
ENDMDL
MODEL 8
REMARK VINA RESULT:    -9.989      2.212      6.944
REMARK INTER + INTRA:         -13.478
REMARK INTER:                 -12.921
REMARK INTRA:                  -0.557
REMARK UNBOUND:                -1.153
REMARK SMILES CC(=O)N[C@H](c1cccc([N+](=O)[O-])c1)c1c([O-])c2ccccc2oc1=O
REMARK SMILES IDX 6 1 14 2 10 3 9 4 8 5 7 6 5 7 4 8 2 9 3 10 1 11 15 13 16 14
REMARK SMILES IDX 25 15 18 16 24 17 26 18 19 19 23 20 20 21 22 22 21 23 17 24
REMARK SMILES IDX 11 25 12 26 13 27
REMARK H PARENT 4 12
ROOT
ATOM      1  C   UNL     1      -8.183  26.752  57.786  1.00  0.00    -0.014 A 
ATOM      2  C   UNL     1      -7.551  25.785  58.584  1.00  0.00     0.091 A 
ATOM      3  C   UNL     1      -7.667  25.847  59.979  1.00  0.00     0.269 A 
ATOM      4  C   UNL     1      -8.411  26.865  60.592  1.00  0.00     0.085 A 
ATOM      5  C   UNL     1      -9.043  27.824  59.802  1.00  0.00     0.007 A 
ATOM      6  C   UNL     1      -8.933  27.765  58.413  1.00  0.00     0.007 A 
ENDROOT
BRANCH   1   7
ATOM      7  C   UNL     1      -8.069  26.686  56.262  1.00  0.00     0.150 C 
BRANCH   7   8
ATOM      8  N   UNL     1      -7.409  25.451  55.877  1.00  0.00    -0.345 N 
ATOM      9  C   UNL     1      -6.183  25.361  55.295  1.00  0.00     0.217 C 
ATOM     10  O   UNL     1      -5.471  26.321  55.010  1.00  0.00    -0.275 OA
ATOM     11  C   UNL     1      -5.773  23.947  54.986  1.00  0.00     0.114 C 
ATOM     12  H   UNL     1      -7.988  24.620  56.054  1.00  0.00     0.164 HD
ENDBRANCH   7   8
BRANCH   7  13
ATOM     13  C   UNL     1      -9.432  26.826  55.563  1.00  0.00     0.057 A 
ATOM     14  C   UNL     1      -9.806  27.865  54.757  1.00  0.00    -0.085 A 
ATOM     15  C   UNL     1     -10.312  25.671  55.896  1.00  0.00     0.341 A 
ATOM     16  C   UNL     1     -11.197  27.744  54.204  1.00  0.00     0.010 A 
ATOM     17  O   UNL     1     -11.571  25.622  55.332  1.00  0.00    -0.423 OA
ATOM     18  O   UNL     1      -9.957  24.765  56.652  1.00  0.00    -0.246 OA
ATOM     19  C   UNL     1     -11.749  28.724  53.357  1.00  0.00     0.011 A 
ATOM     20  C   UNL     1     -12.007  26.654  54.500  1.00  0.00     0.137 A 
ATOM     21  C   UNL     1     -13.045  28.610  52.839  1.00  0.00     0.001 A 
ATOM     22  C   UNL     1     -13.305  26.520  53.991  1.00  0.00     0.048 A 
ATOM     23  C   UNL     1     -13.825  27.503  53.156  1.00  0.00     0.004 A 
ATOM     24  O   UNL     1      -9.096  28.872  54.446  1.00  0.00    -0.872 OA
ENDBRANCH   7  13
ENDBRANCH   1   7
BRANCH   3  25
ATOM     25  N   UNL     1      -7.007  24.836  60.813  1.00  0.00     0.062 N 
ATOM     26  O   UNL     1      -7.431  23.670  60.752  1.00  0.00    -0.258 OA
ATOM     27  O   UNL     1      -6.065  25.194  61.536  1.00  0.00    -0.258 OA
ENDBRANCH   3  25
TORSDOF 4
ENDMDL
MODEL 9
REMARK VINA RESULT:    -9.966      2.001      3.248
REMARK INTER + INTRA:         -13.450
REMARK INTER:                 -12.359
REMARK INTRA:                  -1.090
REMARK UNBOUND:                -1.153
REMARK SMILES CC(=O)N[C@H](c1cccc([N+](=O)[O-])c1)c1c([O-])c2ccccc2oc1=O
REMARK SMILES IDX 6 1 14 2 10 3 9 4 8 5 7 6 5 7 4 8 2 9 3 10 1 11 15 13 16 14
REMARK SMILES IDX 25 15 18 16 24 17 26 18 19 19 23 20 20 21 22 22 21 23 17 24
REMARK SMILES IDX 11 25 12 26 13 27
REMARK H PARENT 4 12
ROOT
ATOM      1  C   UNL     1     -10.257  26.514  56.457  1.00  0.00    -0.014 A 
ATOM      2  C   UNL     1     -11.406  26.389  55.659  1.00  0.00     0.091 A 
ATOM      3  C   UNL     1     -11.564  27.203  54.530  1.00  0.00     0.269 A 
ATOM      4  C   UNL     1     -10.584  28.144  54.182  1.00  0.00     0.085 A 
ATOM      5  C   UNL     1      -9.440  28.267  54.969  1.00  0.00     0.007 A 
ATOM      6  C   UNL     1      -9.277  27.457  56.093  1.00  0.00     0.007 A 
ENDROOT
BRANCH   1   7
ATOM      7  C   UNL     1     -10.073  25.622  57.687  1.00  0.00     0.150 C 
BRANCH   7   8
ATOM      8  N   UNL     1     -11.147  24.647  57.745  1.00  0.00    -0.345 N 
ATOM      9  C   UNL     1     -11.785  24.244  58.877  1.00  0.00     0.217 C 
ATOM     10  O   UNL     1     -11.529  24.651  60.007  1.00  0.00    -0.275 OA
ATOM     11  C   UNL     1     -12.840  23.200  58.627  1.00  0.00     0.114 C 
ATOM     12  H   UNL     1     -11.367  24.243  56.825  1.00  0.00     0.164 HD
ENDBRANCH   7   8
BRANCH   7  13
ATOM     13  C   UNL     1      -8.698  24.932  57.713  1.00  0.00     0.057 A 
ATOM     14  C   UNL     1      -8.171  24.179  56.700  1.00  0.00    -0.085 A 
ATOM     15  C   UNL     1      -8.011  25.181  59.011  1.00  0.00     0.341 A 
ATOM     16  C   UNL     1      -6.808  23.623  56.994  1.00  0.00     0.010 A 
ATOM     17  O   UNL     1      -6.750  24.652  59.196  1.00  0.00    -0.423 OA
ATOM     18  O   UNL     1      -8.526  25.838  59.916  1.00  0.00    -0.246 OA
ATOM     19  C   UNL     1      -6.115  22.822  56.066  1.00  0.00     0.011 A 
ATOM     20  C   UNL     1      -6.161  23.876  58.197  1.00  0.00     0.137 A 
ATOM     21  C   UNL     1      -4.841  22.306  56.338  1.00  0.00     0.001 A 
ATOM     22  C   UNL     1      -4.888  23.371  58.489  1.00  0.00     0.048 A 
ATOM     23  C   UNL     1      -4.226  22.583  57.554  1.00  0.00     0.004 A 
ATOM     24  O   UNL     1      -8.718  23.934  55.579  1.00  0.00    -0.872 OA
ENDBRANCH   7  13
ENDBRANCH   1   7
BRANCH   3  25
ATOM     25  N   UNL     1     -12.765  27.073  53.697  1.00  0.00     0.062 N 
ATOM     26  O   UNL     1     -13.723  26.434  54.163  1.00  0.00    -0.258 OA
ATOM     27  O   UNL     1     -12.763  27.601  52.576  1.00  0.00    -0.258 OA
ENDBRANCH   3  25
TORSDOF 4
ENDMDL
