REMARK SMILES CC(=O)C[C@H](c1ccc([N+](=O)[O-])cc1)c1c(O)c(=O)oc2ccccc12
REMARK SMILES IDX 5 1 6 2 7 3 8 4 9 5 14 6 13 7 10 8 11 9 12 10 15 11 16 12
REMARK SMILES IDX 26 13 18 14 25 15 21 16 19 17 20 18 24 19 22 20 23 21 17 22
REMARK SMILES IDX 4 24 2 25 3 26 1 27
REMARK H PARENT 17 23
ROOT
ATOM      1  C   UNL     1       0.059   0.935  -0.142  1.00  0.00     0.061 C 
ENDROOT
BRANCH   1   2
ATOM      2  C   UNL     1      -1.044  -0.132  -0.159  1.00  0.00    -0.039 A 
ATOM      3  C   UNL     1      -1.669  -0.472  -1.372  1.00  0.00     0.011 A 
ATOM      4  C   UNL     1      -2.684  -1.432  -1.412  1.00  0.00     0.086 A 
ATOM      5  C   UNL     1      -3.089  -2.056  -0.228  1.00  0.00     0.269 A 
ATOM      6  C   UNL     1      -1.477  -0.759   1.022  1.00  0.00     0.011 A 
ATOM      7  C   UNL     1      -2.490  -1.721   0.992  1.00  0.00     0.086 A 
BRANCH   5   8
ATOM      8  N   UNL     1      -4.154  -3.066  -0.263  1.00  0.00     0.062 N 
ATOM      9  O   UNL     1      -4.516  -3.560   0.814  1.00  0.00    -0.258 OA
ATOM     10  O   UNL     1      -4.631  -3.364  -1.368  1.00  0.00    -0.258 OA
ENDBRANCH   5   8
ENDBRANCH   1   2
BRANCH   1  11
ATOM     11  C   UNL     1       1.333   0.432   0.571  1.00  0.00     0.020 A 
ATOM     12  C   UNL     1       1.666   0.742   1.840  1.00  0.00     0.206 A 
ATOM     13  C   UNL     1       2.279  -0.439  -0.179  1.00  0.00     0.025 A 
ATOM     14  C   UNL     1       2.914   0.266   2.490  1.00  0.00     0.379 A 
ATOM     15  C   UNL     1       2.074  -0.878  -1.497  1.00  0.00     0.012 A 
ATOM     16  C   UNL     1       3.455  -0.869   0.443  1.00  0.00     0.139 A 
ATOM     17  O   UNL     1       3.130   0.592   3.657  1.00  0.00    -0.242 OA
ATOM     18  O   UNL     1       3.776  -0.512   1.761  1.00  0.00    -0.420 OA
ATOM     19  C   UNL     1       3.004  -1.698  -2.151  1.00  0.00     0.001 A 
ATOM     20  C   UNL     1       4.394  -1.686  -0.196  1.00  0.00     0.048 A 
ATOM     21  C   UNL     1       4.165  -2.101  -1.501  1.00  0.00     0.004 A 
BRANCH  12  22
ATOM     22  O   UNL     1       0.842   1.515   2.649  1.00  0.00    -0.502 OA
ATOM     23  H   UNL     1       1.314   1.581   3.510  1.00  0.00     0.293 HD
ENDBRANCH  12  22
ENDBRANCH   1  11
BRANCH   1  24
ATOM     24  C   UNL     1      -0.523   2.278   0.358  1.00  0.00     0.088 C 
BRANCH  24  25
ATOM     25  C   UNL     1      -1.439   2.936  -0.661  1.00  0.00     0.130 C 
ATOM     26  O   UNL     1      -1.305   2.775  -1.875  1.00  0.00    -0.300 OA
ATOM     27  C   UNL     1      -2.493   3.862  -0.115  1.00  0.00     0.087 C 
ENDBRANCH  24  25
ENDBRANCH   1  24
TORSDOF 6
