REMARK SMILES O=c1oc2ccccc2c(O)c1C(c1ccccc1)c1c(O)c2ccccc2oc1=O
REMARK SMILES IDX 13 1 12 2 1 3 2 4 3 5 4 6 10 7 5 8 9 9 6 10 8 11 7 12 11 13
REMARK SMILES IDX 14 15 15 16 19 17 16 18 18 19 17 20 20 21 21 22 30 23 23 24
REMARK SMILES IDX 29 25 31 26 24 27 28 28 25 29 27 30 26 31 22 32
REMARK H PARENT 11 14 22 33
ROOT
ATOM      1  C   UNL     1       0.117   0.876  -0.145  1.00  0.00     0.102 C 
ENDROOT
BRANCH   1   2
ATOM      2  C   UNL     1      -1.118   0.002   0.107  1.00  0.00     0.092 A 
ATOM      3  O   UNL     1      -0.185  -0.968   2.073  1.00  0.00    -0.246 OA
ATOM      4  C   UNL     1      -1.110  -0.919   1.270  1.00  0.00     0.344 A 
ATOM      5  O   UNL     1      -2.190  -1.781   1.417  1.00  0.00    -0.422 OA
ATOM      6  C   UNL     1      -3.319  -1.707   0.589  1.00  0.00     0.142 A 
ATOM      7  C   UNL     1      -2.182   0.014  -0.721  1.00  0.00     0.138 A 
ATOM      8  C   UNL     1      -4.385  -2.551   0.904  1.00  0.00     0.048 A 
ATOM      9  C   UNL     1      -3.368  -0.808  -0.470  1.00  0.00     0.060 A 
ATOM     10  C   UNL     1      -5.550  -2.485   0.147  1.00  0.00     0.004 A 
ATOM     11  C   UNL     1      -4.559  -0.734  -1.206  1.00  0.00     0.016 A 
ATOM     12  C   UNL     1      -5.640  -1.571  -0.903  1.00  0.00     0.001 A 
BRANCH   7  13
ATOM     13  O   UNL     1      -2.185   0.806  -1.854  1.00  0.00    -0.507 OA
ATOM     14  H   UNL     1      -2.703   0.360  -2.544  1.00  0.00     0.293 HD
ENDBRANCH   7  13
ENDBRANCH   1   2
BRANCH   1  15
ATOM     15  C   UNL     1      -0.017   2.311   0.383  1.00  0.00    -0.035 A 
ATOM     16  C   UNL     1       0.491   3.378  -0.382  1.00  0.00     0.005 A 
ATOM     17  C   UNL     1      -0.628   2.609   1.612  1.00  0.00     0.005 A 
ATOM     18  C   UNL     1       0.375   4.698   0.060  1.00  0.00     0.000 A 
ATOM     19  C   UNL     1      -0.741   3.930   2.053  1.00  0.00     0.000 A 
ATOM     20  C   UNL     1      -0.243   4.973   1.277  1.00  0.00     0.000 A 
ENDBRANCH   1  15
BRANCH   1  21
ATOM     21  C   UNL     1       1.463   0.175   0.060  1.00  0.00     0.092 A 
ATOM     22  C   UNL     1       1.934  -0.697  -0.854  1.00  0.00     0.138 A 
ATOM     23  C   UNL     1       2.277   0.476   1.272  1.00  0.00     0.344 A 
ATOM     24  C   UNL     1       3.206  -1.402  -0.676  1.00  0.00     0.060 A 
ATOM     25  O   UNL     1       3.547  -0.092   1.336  1.00  0.00    -0.422 OA
ATOM     26  O   UNL     1       1.913   1.218   2.175  1.00  0.00    -0.246 OA
ATOM     27  C   UNL     1       3.677  -2.423  -1.515  1.00  0.00     0.016 A 
ATOM     28  C   UNL     1       3.991  -1.049   0.413  1.00  0.00     0.142 A 
ATOM     29  C   UNL     1       4.918  -3.028  -1.276  1.00  0.00     0.001 A 
ATOM     30  C   UNL     1       5.230  -1.639   0.665  1.00  0.00     0.048 A 
ATOM     31  C   UNL     1       5.697  -2.630  -0.191  1.00  0.00     0.004 A 
BRANCH  22  32
ATOM     32  O   UNL     1       1.222  -0.954  -2.013  1.00  0.00    -0.507 OA
ATOM     33  H   UNL     1       1.853  -1.156  -2.725  1.00  0.00     0.293 HD
ENDBRANCH  22  32
ENDBRANCH   1  21
TORSDOF 5
