REMARK SMILES O=C(CC1CCCC1)Oc1ccccc1C(=O)C[C@]1(O)C(=O)Oc2ccccc21
REMARK SMILES IDX 15 1 14 2 13 3 12 4 11 5 10 6 16 7 17 8 18 9 19 10 29 11
REMARK SMILES IDX 21 12 28 13 24 14 23 15 22 16 27 17 25 18 26 19 20 20 9 22
REMARK SMILES IDX 2 23 1 24 3 25 4 26 5 27 8 28 6 29 7 30
REMARK H PARENT 20 21
ROOT
ATOM      1  C   UNL     1      -0.581   1.179   1.902  1.00  0.00     0.060 A 
ATOM      2  C   UNL     1      -1.395   2.074   2.604  1.00  0.00     0.016 A 
ATOM      3  C   UNL     1      -1.036   2.457   3.898  1.00  0.00     0.001 A 
ATOM      4  C   UNL     1       0.126   1.947   4.486  1.00  0.00     0.004 A 
ATOM      5  C   UNL     1       0.943   1.060   3.780  1.00  0.00     0.048 A 
ATOM      6  C   UNL     1       0.594   0.697   2.481  1.00  0.00     0.141 A 
ENDROOT
BRANCH   1   7
ATOM      7  C   UNL     1      -0.971   0.728   0.554  1.00  0.00     0.170 C 
ATOM      8  O   UNL     1      -0.266   0.998  -0.413  1.00  0.00    -0.294 OA
BRANCH   7   9
ATOM      9  C   UNL     1      -2.209  -0.137   0.441  1.00  0.00     0.133 C 
BRANCH   9  10
ATOM     10  C   UNL     1      -2.934   0.114  -0.882  1.00  0.00     0.198 C 
ATOM     11  C   UNL     1      -4.118  -0.773  -1.017  1.00  0.00     0.038 A 
ATOM     12  C   UNL     1      -3.639   1.496  -0.838  1.00  0.00     0.348 C 
ATOM     13  C   UNL     1      -4.207  -2.152  -1.128  1.00  0.00     0.011 A 
ATOM     14  C   UNL     1      -5.256   0.013  -1.019  1.00  0.00     0.137 A 
ATOM     15  O   UNL     1      -5.025   1.370  -0.909  1.00  0.00    -0.424 OA
ATOM     16  O   UNL     1      -3.077   2.578  -0.708  1.00  0.00    -0.248 OA
ATOM     17  C   UNL     1      -5.476  -2.726  -1.228  1.00  0.00     0.001 A 
ATOM     18  C   UNL     1      -6.521  -0.532  -1.120  1.00  0.00     0.047 A 
ATOM     19  C   UNL     1      -6.627  -1.922  -1.220  1.00  0.00     0.004 A 
BRANCH  10  20
ATOM     20  O   UNL     1      -2.098  -0.111  -2.003  1.00  0.00    -0.373 OA
ATOM     21  H   UNL     1      -1.311   0.464  -1.881  1.00  0.00     0.212 HD
ENDBRANCH  10  20
ENDBRANCH   9  10
ENDBRANCH   7   9
ENDBRANCH   1   7
BRANCH   6  22
ATOM     22  O   UNL     1       1.367  -0.232   1.781  1.00  0.00    -0.426 OA
BRANCH  22  23
ATOM     23  C   UNL     1       2.545   0.306   1.259  1.00  0.00     0.311 C 
ATOM     24  O   UNL     1       3.026   1.397   1.526  1.00  0.00    -0.252 OA
BRANCH  23  25
ATOM     25  C   UNL     1       3.158  -0.724   0.336  1.00  0.00     0.126 C 
BRANCH  25  26
ATOM     26  C   UNL     1       4.341  -0.179  -0.460  1.00  0.00    -0.000 C 
ATOM     27  C   UNL     1       5.051  -1.268  -1.269  1.00  0.00     0.004 C 
ATOM     28  C   UNL     1       3.951   0.832  -1.538  1.00  0.00     0.004 C 
ATOM     29  C   UNL     1       5.730  -0.540  -2.427  1.00  0.00     0.000 C 
ATOM     30  C   UNL     1       5.196   0.889  -2.409  1.00  0.00     0.000 C 
ENDBRANCH  25  26
ENDBRANCH  23  25
ENDBRANCH  22  23
ENDBRANCH   6  22
TORSDOF 8
