REMARK SMILES O=C(/C=C/c1ccccc1)Oc1ccccc1C(=O)O
REMARK SMILES IDX 17 1 16 2 15 3 14 4 13 5 12 6 18 7 19 8 20 9 11 11 2 12 1 13
REMARK SMILES IDX 3 14 4 15 5 16 6 17 10 18 7 19 9 20 8 21
REMARK H PARENT 20 10
ROOT
ATOM      1  C   UNL     1      -3.536  -0.006  -0.145  1.00  0.00     0.102 A 
ATOM      2  C   UNL     1      -4.833   0.525  -0.212  1.00  0.00     0.019 A 
ATOM      3  C   UNL     1      -5.251   1.497   0.704  1.00  0.00     0.001 A 
ATOM      4  C   UNL     1      -4.382   1.944   1.698  1.00  0.00     0.004 A 
ATOM      5  C   UNL     1      -3.091   1.428   1.778  1.00  0.00     0.048 A 
ATOM      6  C   UNL     1      -2.670   0.470   0.849  1.00  0.00     0.145 A 
ENDROOT
BRANCH   1   7
ATOM      7  C   UNL     1      -3.095  -1.061  -1.094  1.00  0.00     0.339 C 
ATOM      8  O   UNL     1      -2.048  -1.682  -1.067  1.00  0.00    -0.246 OA
BRANCH   7   9
ATOM      9  O   UNL     1      -4.005  -1.302  -2.058  1.00  0.00    -0.478 OA
ATOM     10  H   UNL     1      -3.580  -1.990  -2.612  1.00  0.00     0.297 HD
ENDBRANCH   7   9
ENDBRANCH   1   7
BRANCH   6  11
ATOM     11  O   UNL     1      -1.372  -0.028   0.998  1.00  0.00    -0.422 OA
BRANCH  11  12
ATOM     12  C   UNL     1      -0.467   0.608   0.165  1.00  0.00     0.336 C 
ATOM     13  O   UNL     1      -0.673   1.562  -0.569  1.00  0.00    -0.246 OA
BRANCH  12  14
ATOM     14  C   UNL     1       0.837  -0.071   0.334  1.00  0.00     0.094 C 
ATOM     15  C   UNL     1       1.923   0.399  -0.298  1.00  0.00     0.015 C 
BRANCH  15  16
ATOM     16  C   UNL     1       3.256  -0.205  -0.188  1.00  0.00    -0.025 A 
ATOM     17  C   UNL     1       3.448  -1.593  -0.145  1.00  0.00     0.008 A 
ATOM     18  C   UNL     1       4.380   0.632  -0.178  1.00  0.00     0.008 A 
ATOM     19  C   UNL     1       4.736  -2.130  -0.066  1.00  0.00     0.001 A 
ATOM     20  C   UNL     1       5.667   0.095  -0.099  1.00  0.00     0.001 A 
ATOM     21  C   UNL     1       5.845  -1.286  -0.040  1.00  0.00     0.000 A 
ENDBRANCH  15  16
ENDBRANCH  12  14
ENDBRANCH  11  12
ENDBRANCH   6  11
TORSDOF 6
