REMARK SMILES CC(=O)C[C@H](c1ccccc1)c1c(O)c2ccccc2oc1=O
REMARK SMILES IDX 5 1 4 2 2 3 3 4 1 5 6 6 7 7 11 8 8 9 10 10 9 11 12 12 13 13
REMARK SMILES IDX 22 14 15 15 21 16 23 17 16 18 20 19 17 20 19 21 18 22 14 23
REMARK H PARENT 14 24
ROOT
ATOM      1  C   UNL     1      -0.929   0.634   0.095  1.00  0.00     0.068 C 
ENDROOT
BRANCH   1   2
ATOM      2  C   UNL     1      -1.892   1.022   1.234  1.00  0.00     0.088 C 
BRANCH   2   3
ATOM      3  C   UNL     1      -3.058   1.831   0.700  1.00  0.00     0.130 C 
ATOM      4  O   UNL     1      -2.920   3.012   0.378  1.00  0.00    -0.300 OA
ATOM      5  C   UNL     1      -4.382   1.130   0.548  1.00  0.00     0.087 C 
ENDBRANCH   2   3
ENDBRANCH   1   2
BRANCH   1   6
ATOM      6  C   UNL     1      -1.485  -0.448  -0.832  1.00  0.00    -0.040 A 
ATOM      7  C   UNL     1      -1.976  -1.672  -0.354  1.00  0.00     0.004 A 
ATOM      8  C   UNL     1      -1.492  -0.224  -2.220  1.00  0.00     0.004 A 
ATOM      9  C   UNL     1      -2.470  -2.637  -1.236  1.00  0.00     0.000 A 
ATOM     10  C   UNL     1      -1.988  -1.188  -3.100  1.00  0.00     0.000 A 
ATOM     11  C   UNL     1      -2.478  -2.394  -2.607  1.00  0.00     0.000 A 
ENDBRANCH   1   6
BRANCH   1  12
ATOM     12  C   UNL     1       0.494   0.307   0.549  1.00  0.00     0.088 A 
ATOM     13  C   UNL     1       1.576   0.836  -0.050  1.00  0.00     0.137 A 
ATOM     14  C   UNL     1       0.673  -0.641   1.679  1.00  0.00     0.343 A 
ATOM     15  C   UNL     1       2.936   0.523   0.397  1.00  0.00     0.060 A 
ATOM     16  O   UNL     1       1.967  -1.044   1.981  1.00  0.00    -0.422 OA
ATOM     17  O   UNL     1      -0.272  -1.081   2.325  1.00  0.00    -0.246 OA
ATOM     18  C   UNL     1       4.095   1.142  -0.091  1.00  0.00     0.016 A 
ATOM     19  C   UNL     1       3.086  -0.442   1.387  1.00  0.00     0.142 A 
ATOM     20  C   UNL     1       5.358   0.764   0.379  1.00  0.00     0.001 A 
ATOM     21  C   UNL     1       4.337  -0.833   1.864  1.00  0.00     0.048 A 
ATOM     22  C   UNL     1       5.480  -0.229   1.350  1.00  0.00     0.004 A 
BRANCH  13  23
ATOM     23  O   UNL     1       1.440   1.669  -1.145  1.00  0.00    -0.507 OA
ATOM     24  H   UNL     1       2.196   1.526  -1.740  1.00  0.00     0.293 HD
ENDBRANCH  13  23
ENDBRANCH   1  12
TORSDOF 5
