MODEL 1
REMARK VINA RESULT:    -5.447      0.000      0.000
REMARK INTER + INTRA:          -8.013
REMARK INTER:                  -6.880
REMARK INTRA:                  -1.133
REMARK UNBOUND:                -1.133
REMARK SMILES O=C(C[C@@]1(O)C(=O)Oc2ccccc21)c1ccc([N+](=O)[O-])cc1
REMARK SMILES IDX 2 1 1 2 3 3 4 4 14 5 6 6 13 7 9 8 8 9 7 10 12 11 10 12 11 13
REMARK SMILES IDX 5 14 15 16 16 17 23 18 17 19 22 20 18 21 19 22 20 23 21 24
REMARK H PARENT 5 15
ROOT
ATOM      1  C   UNL     1      30.652  24.688  28.567  1.00  0.00     0.166 C 
ATOM      2  O   UNL     1      31.067  24.338  27.463  1.00  0.00    -0.294 OA
ENDROOT
BRANCH   1   3
ATOM      3  C   UNL     1      29.661  23.843  29.345  1.00  0.00     0.133 C 
BRANCH   3   4
ATOM      4  C   UNL     1      28.286  23.840  28.662  1.00  0.00     0.198 C 
ATOM      5  C   UNL     1      27.392  24.862  29.265  1.00  0.00     0.038 A 
ATOM      6  C   UNL     1      27.513  22.548  29.051  1.00  0.00     0.348 C 
ATOM      7  C   UNL     1      27.467  26.246  29.257  1.00  0.00     0.011 A 
ATOM      8  C   UNL     1      26.354  24.214  29.909  1.00  0.00     0.137 A 
ATOM      9  O   UNL     1      26.392  22.835  29.826  1.00  0.00    -0.424 OA
ATOM     10  O   UNL     1      27.848  21.405  28.764  1.00  0.00    -0.248 OA
ATOM     11  C   UNL     1      26.475  26.968  29.927  1.00  0.00     0.001 A 
ATOM     12  C   UNL     1      25.363  24.906  30.578  1.00  0.00     0.047 A 
ATOM     13  C   UNL     1      25.430  26.301  30.586  1.00  0.00     0.004 A 
BRANCH   4  14
ATOM     14  O   UNL     1      28.378  24.110  27.275  1.00  0.00    -0.373 OA
ATOM     15  H   UNL     1      28.873  23.357  26.883  1.00  0.00     0.212 HD
ENDBRANCH   4  14
ENDBRANCH   3   4
ENDBRANCH   1   3
BRANCH   1  16
ATOM     16  C   UNL     1      31.111  25.984  29.139  1.00  0.00     0.018 A 
ATOM     17  C   UNL     1      31.804  26.932  28.374  1.00  0.00     0.019 A 
ATOM     18  C   UNL     1      30.850  26.241  30.494  1.00  0.00     0.019 A 
ATOM     19  C   UNL     1      32.221  28.135  28.956  1.00  0.00     0.086 A 
ATOM     20  C   UNL     1      31.263  27.440  31.082  1.00  0.00     0.086 A 
ATOM     21  C   UNL     1      31.947  28.386  30.309  1.00  0.00     0.269 A 
BRANCH  21  22
ATOM     22  N   UNL     1      32.386  29.648  30.919  1.00  0.00     0.062 N 
ATOM     23  O   UNL     1      31.982  30.704  30.412  1.00  0.00    -0.258 OA
ATOM     24  O   UNL     1      33.135  29.581  31.904  1.00  0.00    -0.258 OA
ENDBRANCH  21  22
ENDBRANCH   1  16
TORSDOF 5
ENDMDL
MODEL 2
REMARK VINA RESULT:    -5.402      3.433      4.360
REMARK INTER + INTRA:          -7.956
REMARK INTER:                  -7.022
REMARK INTRA:                  -0.934
REMARK UNBOUND:                -1.133
REMARK SMILES O=C(C[C@@]1(O)C(=O)Oc2ccccc21)c1ccc([N+](=O)[O-])cc1
REMARK SMILES IDX 2 1 1 2 3 3 4 4 14 5 6 6 13 7 9 8 8 9 7 10 12 11 10 12 11 13
REMARK SMILES IDX 5 14 15 16 16 17 23 18 17 19 22 20 18 21 19 22 20 23 21 24
REMARK H PARENT 5 15
ROOT
ATOM      1  C   UNL     1      30.828  25.045  26.323  1.00  0.00     0.166 C 
ATOM      2  O   UNL     1      30.207  24.461  25.437  1.00  0.00    -0.294 OA
ENDROOT
BRANCH   1   3
ATOM      3  C   UNL     1      30.114  25.690  27.496  1.00  0.00     0.133 C 
BRANCH   3   4
ATOM      4  C   UNL     1      29.606  24.629  28.483  1.00  0.00     0.198 C 
ATOM      5  C   UNL     1      28.122  24.629  28.543  1.00  0.00     0.038 A 
ATOM      6  C   UNL     1      29.932  25.070  29.938  1.00  0.00     0.348 C 
ATOM      7  C   UNL     1      27.178  24.288  27.587  1.00  0.00     0.011 A 
ATOM      8  C   UNL     1      27.733  25.052  29.801  1.00  0.00     0.137 A 
ATOM      9  O   UNL     1      28.774  25.345  30.661  1.00  0.00    -0.424 OA
ATOM     10  O   UNL     1      31.057  25.211  30.403  1.00  0.00    -0.248 OA
ATOM     11  C   UNL     1      25.826  24.395  27.924  1.00  0.00     0.001 A 
ATOM     12  C   UNL     1      26.403  25.166  30.156  1.00  0.00     0.047 A 
ATOM     13  C   UNL     1      25.440  24.835  29.200  1.00  0.00     0.004 A 
BRANCH   4  14
ATOM     14  O   UNL     1      30.025  23.325  28.126  1.00  0.00    -0.373 OA
ATOM     15  H   UNL     1      29.757  23.199  27.188  1.00  0.00     0.212 HD
ENDBRANCH   4  14
ENDBRANCH   3   4
ENDBRANCH   1   3
BRANCH   1  16
ATOM     16  C   UNL     1      32.311  25.145  26.228  1.00  0.00     0.018 A 
ATOM     17  C   UNL     1      32.995  24.936  25.023  1.00  0.00     0.019 A 
ATOM     18  C   UNL     1      33.032  25.439  27.394  1.00  0.00     0.019 A 
ATOM     19  C   UNL     1      34.391  25.035  24.982  1.00  0.00     0.086 A 
ATOM     20  C   UNL     1      34.427  25.540  27.361  1.00  0.00     0.086 A 
ATOM     21  C   UNL     1      35.103  25.339  26.152  1.00  0.00     0.269 A 
BRANCH  21  22
ATOM     22  N   UNL     1      36.567  25.441  26.108  1.00  0.00     0.062 N 
ATOM     23  O   UNL     1      37.125  25.257  25.017  1.00  0.00    -0.258 OA
ATOM     24  O   UNL     1      37.157  25.706  27.166  1.00  0.00    -0.258 OA
ENDBRANCH  21  22
ENDBRANCH   1  16
TORSDOF 5
ENDMDL
MODEL 3
REMARK VINA RESULT:    -5.316      4.288      5.845
REMARK INTER + INTRA:          -7.847
REMARK INTER:                  -7.303
REMARK INTRA:                  -0.544
REMARK UNBOUND:                -1.133
REMARK SMILES O=C(C[C@@]1(O)C(=O)Oc2ccccc21)c1ccc([N+](=O)[O-])cc1
REMARK SMILES IDX 2 1 1 2 3 3 4 4 14 5 6 6 13 7 9 8 8 9 7 10 12 11 10 12 11 13
REMARK SMILES IDX 5 14 15 16 16 17 23 18 17 19 22 20 18 21 19 22 20 23 21 24
REMARK H PARENT 5 15
ROOT
ATOM      1  C   UNL     1      33.054  26.277  27.091  1.00  0.00     0.166 C 
ATOM      2  O   UNL     1      32.791  27.467  26.930  1.00  0.00    -0.294 OA
ENDROOT
BRANCH   1   3
ATOM      3  C   UNL     1      32.268  25.416  28.062  1.00  0.00     0.133 C 
BRANCH   3   4
ATOM      4  C   UNL     1      30.765  25.711  27.966  1.00  0.00     0.198 C 
ATOM      5  C   UNL     1      30.005  24.925  28.973  1.00  0.00     0.038 A 
ATOM      6  C   UNL     1      30.194  25.093  26.659  1.00  0.00     0.348 C 
ATOM      7  C   UNL     1      29.998  24.995  30.357  1.00  0.00     0.011 A 
ATOM      8  C   UNL     1      29.210  24.011  28.307  1.00  0.00     0.137 A 
ATOM      9  O   UNL     1      29.302  24.057  26.929  1.00  0.00    -0.424 OA
ATOM     10  O   UNL     1      30.505  25.422  25.521  1.00  0.00    -0.248 OA
ATOM     11  C   UNL     1      29.177  24.110  31.061  1.00  0.00     0.001 A 
ATOM     12  C   UNL     1      28.392  23.125  28.981  1.00  0.00     0.047 A 
ATOM     13  C   UNL     1      28.381  23.177  30.377  1.00  0.00     0.004 A 
BRANCH   4  14
ATOM     14  O   UNL     1      30.474  27.080  28.178  1.00  0.00    -0.373 OA
ATOM     15  H   UNL     1      29.499  27.169  28.095  1.00  0.00     0.212 HD
ENDBRANCH   4  14
ENDBRANCH   3   4
ENDBRANCH   1   3
BRANCH   1  16
ATOM     16  C   UNL     1      34.187  25.673  26.336  1.00  0.00     0.018 A 
ATOM     17  C   UNL     1      34.080  25.328  24.982  1.00  0.00     0.019 A 
ATOM     18  C   UNL     1      35.387  25.430  27.021  1.00  0.00     0.019 A 
ATOM     19  C   UNL     1      35.170  24.757  24.314  1.00  0.00     0.086 A 
ATOM     20  C   UNL     1      36.480  24.861  26.361  1.00  0.00     0.086 A 
ATOM     21  C   UNL     1      36.369  24.527  25.006  1.00  0.00     0.269 A 
BRANCH  21  22
ATOM     22  N   UNL     1      37.511  23.928  24.304  1.00  0.00     0.062 N 
ATOM     23  O   UNL     1      38.302  24.691  23.733  1.00  0.00    -0.258 OA
ATOM     24  O   UNL     1      37.615  22.693  24.326  1.00  0.00    -0.258 OA
ENDBRANCH  21  22
ENDBRANCH   1  16
TORSDOF 5
ENDMDL
MODEL 4
REMARK VINA RESULT:    -5.308      3.616      5.233
REMARK INTER + INTRA:          -7.838
REMARK INTER:                  -7.104
REMARK INTRA:                  -0.734
REMARK UNBOUND:                -1.133
REMARK SMILES O=C(C[C@@]1(O)C(=O)Oc2ccccc21)c1ccc([N+](=O)[O-])cc1
REMARK SMILES IDX 2 1 1 2 3 3 4 4 14 5 6 6 13 7 9 8 8 9 7 10 12 11 10 12 11 13
REMARK SMILES IDX 5 14 15 16 16 17 23 18 17 19 22 20 18 21 19 22 20 23 21 24
REMARK H PARENT 5 15
ROOT
ATOM      1  C   UNL     1      32.049  26.570  28.096  1.00  0.00     0.166 C 
ATOM      2  O   UNL     1      32.385  27.466  28.868  1.00  0.00    -0.294 OA
ENDROOT
BRANCH   1   3
ATOM      3  C   UNL     1      30.635  26.019  28.090  1.00  0.00     0.133 C 
BRANCH   3   4
ATOM      4  C   UNL     1      30.204  25.597  29.501  1.00  0.00     0.198 C 
ATOM      5  C   UNL     1      29.222  24.482  29.444  1.00  0.00     0.038 A 
ATOM      6  C   UNL     1      29.312  26.705  30.128  1.00  0.00     0.348 C 
ATOM      7  C   UNL     1      29.369  23.170  29.023  1.00  0.00     0.011 A 
ATOM      8  C   UNL     1      28.006  24.943  29.911  1.00  0.00     0.137 A 
ATOM      9  O   UNL     1      28.003  26.266  30.313  1.00  0.00    -0.424 OA
ATOM     10  O   UNL     1      29.675  27.844  30.396  1.00  0.00    -0.248 OA
ATOM     11  C   UNL     1      28.252  22.330  29.071  1.00  0.00     0.001 A 
ATOM     12  C   UNL     1      26.889  24.133  29.967  1.00  0.00     0.047 A 
ATOM     13  C   UNL     1      27.019  22.810  29.538  1.00  0.00     0.004 A 
BRANCH   4  14
ATOM     14  O   UNL     1      31.300  25.168  30.288  1.00  0.00    -0.373 OA
ATOM     15  H   UNL     1      30.913  24.708  31.066  1.00  0.00     0.212 HD
ENDBRANCH   4  14
ENDBRANCH   3   4
ENDBRANCH   1   3
BRANCH   1  16
ATOM     16  C   UNL     1      33.059  25.993  27.165  1.00  0.00     0.018 A 
ATOM     17  C   UNL     1      32.750  25.672  25.837  1.00  0.00     0.019 A 
ATOM     18  C   UNL     1      34.351  25.752  27.656  1.00  0.00     0.019 A 
ATOM     19  C   UNL     1      33.731  25.126  25.000  1.00  0.00     0.086 A 
ATOM     20  C   UNL     1      35.336  25.207  26.826  1.00  0.00     0.086 A 
ATOM     21  C   UNL     1      35.023  24.897  25.498  1.00  0.00     0.269 A 
BRANCH  21  22
ATOM     22  N   UNL     1      36.050  24.323  24.619  1.00  0.00     0.062 N 
ATOM     23  O   UNL     1      36.383  24.975  23.619  1.00  0.00    -0.258 OA
ATOM     24  O   UNL     1      36.523  23.221  24.931  1.00  0.00    -0.258 OA
ENDBRANCH  21  22
ENDBRANCH   1  16
TORSDOF 5
ENDMDL
MODEL 5
REMARK VINA RESULT:    -5.078      3.172      6.142
REMARK INTER + INTRA:          -7.547
REMARK INTER:                  -6.341
REMARK INTRA:                  -1.206
REMARK UNBOUND:                -1.133
REMARK SMILES O=C(C[C@@]1(O)C(=O)Oc2ccccc21)c1ccc([N+](=O)[O-])cc1
REMARK SMILES IDX 2 1 1 2 3 3 4 4 14 5 6 6 13 7 9 8 8 9 7 10 12 11 10 12 11 13
REMARK SMILES IDX 5 14 15 16 16 17 23 18 17 19 22 20 18 21 19 22 20 23 21 24
REMARK H PARENT 5 15
ROOT
ATOM      1  C   UNL     1      30.533  25.077  30.108  1.00  0.00     0.166 C 
ATOM      2  O   UNL     1      31.134  25.576  31.058  1.00  0.00    -0.294 OA
ENDROOT
BRANCH   1   3
ATOM      3  C   UNL     1      31.274  24.530  28.902  1.00  0.00     0.133 C 
BRANCH   3   4
ATOM      4  C   UNL     1      31.456  25.613  27.830  1.00  0.00     0.198 C 
ATOM      5  C   UNL     1      30.563  25.364  26.668  1.00  0.00     0.038 A 
ATOM      6  C   UNL     1      32.840  25.441  27.144  1.00  0.00     0.348 C 
ATOM      7  C   UNL     1      29.182  25.400  26.566  1.00  0.00     0.011 A 
ATOM      8  C   UNL     1      31.346  25.059  25.570  1.00  0.00     0.137 A 
ATOM      9  O   UNL     1      32.708  25.073  25.807  1.00  0.00    -0.424 OA
ATOM     10  O   UNL     1      33.927  25.564  27.695  1.00  0.00    -0.248 OA
ATOM     11  C   UNL     1      28.601  25.108  25.328  1.00  0.00     0.001 A 
ATOM     12  C   UNL     1      30.795  24.766  24.338  1.00  0.00     0.047 A 
ATOM     13  C   UNL     1      29.403  24.789  24.221  1.00  0.00     0.004 A 
BRANCH   4  14
ATOM     14  O   UNL     1      31.169  26.908  28.325  1.00  0.00    -0.373 OA
ATOM     15  H   UNL     1      30.209  26.914  28.535  1.00  0.00     0.212 HD
ENDBRANCH   4  14
ENDBRANCH   3   4
ENDBRANCH   1   3
BRANCH   1  16
ATOM     16  C   UNL     1      29.044  25.036  30.129  1.00  0.00     0.018 A 
ATOM     17  C   UNL     1      28.334  23.829  30.165  1.00  0.00     0.019 A 
ATOM     18  C   UNL     1      28.346  26.252  30.091  1.00  0.00     0.019 A 
ATOM     19  C   UNL     1      26.934  23.838  30.177  1.00  0.00     0.086 A 
ATOM     20  C   UNL     1      26.948  26.269  30.103  1.00  0.00     0.086 A 
ATOM     21  C   UNL     1      26.245  25.060  30.148  1.00  0.00     0.269 A 
BRANCH  21  22
ATOM     22  N   UNL     1      24.777  25.068  30.161  1.00  0.00     0.062 N 
ATOM     23  O   UNL     1      24.205  24.598  31.155  1.00  0.00    -0.258 OA
ATOM     24  O   UNL     1      24.196  25.544  29.174  1.00  0.00    -0.258 OA
ENDBRANCH  21  22
ENDBRANCH   1  16
TORSDOF 5
ENDMDL
MODEL 6
REMARK VINA RESULT:    -5.022      2.790      4.079
REMARK INTER + INTRA:          -7.476
REMARK INTER:                  -6.671
REMARK INTRA:                  -0.805
REMARK UNBOUND:                -1.133
REMARK SMILES O=C(C[C@@]1(O)C(=O)Oc2ccccc21)c1ccc([N+](=O)[O-])cc1
REMARK SMILES IDX 2 1 1 2 3 3 4 4 14 5 6 6 13 7 9 8 8 9 7 10 12 11 10 12 11 13
REMARK SMILES IDX 5 14 15 16 16 17 23 18 17 19 22 20 18 21 19 22 20 23 21 24
REMARK H PARENT 5 15
ROOT
ATOM      1  C   UNL     1      29.705  24.003  27.988  1.00  0.00     0.166 C 
ATOM      2  O   UNL     1      29.865  22.857  28.405  1.00  0.00    -0.294 OA
ENDROOT
BRANCH   1   3
ATOM      3  C   UNL     1      28.340  24.664  27.991  1.00  0.00     0.133 C 
BRANCH   3   4
ATOM      4  C   UNL     1      28.015  25.247  29.373  1.00  0.00     0.198 C 
ATOM      5  C   UNL     1      29.048  26.230  29.791  1.00  0.00     0.038 A 
ATOM      6  C   UNL     1      28.226  24.158  30.463  1.00  0.00     0.348 C 
ATOM      7  C   UNL     1      29.378  27.471  29.271  1.00  0.00     0.011 A 
ATOM      8  C   UNL     1      29.725  25.717  30.883  1.00  0.00     0.137 A 
ATOM      9  O   UNL     1      29.286  24.478  31.308  1.00  0.00    -0.424 OA
ATOM     10  O   UNL     1      27.587  23.118  30.562  1.00  0.00    -0.248 OA
ATOM     11  C   UNL     1      30.420  28.185  29.871  1.00  0.00     0.001 A 
ATOM     12  C   UNL     1      30.758  26.404  31.491  1.00  0.00     0.047 A 
ATOM     13  C   UNL     1      31.108  27.653  30.972  1.00  0.00     0.004 A 
BRANCH   4  14
ATOM     14  O   UNL     1      26.760  25.904  29.394  1.00  0.00    -0.373 OA
ATOM     15  H   UNL     1      26.263  25.567  28.615  1.00  0.00     0.212 HD
ENDBRANCH   4  14
ENDBRANCH   3   4
ENDBRANCH   1   3
BRANCH   1  16
ATOM     16  C   UNL     1      30.874  24.747  27.441  1.00  0.00     0.018 A 
ATOM     17  C   UNL     1      32.003  25.036  28.219  1.00  0.00     0.019 A 
ATOM     18  C   UNL     1      30.818  25.183  26.109  1.00  0.00     0.019 A 
ATOM     19  C   UNL     1      33.076  25.744  27.664  1.00  0.00     0.086 A 
ATOM     20  C   UNL     1      31.886  25.890  25.547  1.00  0.00     0.086 A 
ATOM     21  C   UNL     1      33.015  26.167  26.327  1.00  0.00     0.269 A 
BRANCH  21  22
ATOM     22  N   UNL     1      34.140  26.910  25.747  1.00  0.00     0.062 N 
ATOM     23  O   UNL     1      34.981  27.383  26.523  1.00  0.00    -0.258 OA
ATOM     24  O   UNL     1      34.181  27.019  24.512  1.00  0.00    -0.258 OA
ENDBRANCH  21  22
ENDBRANCH   1  16
TORSDOF 5
ENDMDL
MODEL 7
REMARK VINA RESULT:    -4.996      1.661      3.417
REMARK INTER + INTRA:          -7.443
REMARK INTER:                  -6.495
REMARK INTRA:                  -0.948
REMARK UNBOUND:                -1.133
REMARK SMILES O=C(C[C@@]1(O)C(=O)Oc2ccccc21)c1ccc([N+](=O)[O-])cc1
REMARK SMILES IDX 2 1 1 2 3 3 4 4 14 5 6 6 13 7 9 8 8 9 7 10 12 11 10 12 11 13
REMARK SMILES IDX 5 14 15 16 16 17 23 18 17 19 22 20 18 21 19 22 20 23 21 24
REMARK H PARENT 5 15
ROOT
ATOM      1  C   UNL     1      27.897  25.571  30.192  1.00  0.00     0.166 C 
ATOM      2  O   UNL     1      26.756  26.030  30.149  1.00  0.00    -0.294 OA
ENDROOT
BRANCH   1   3
ATOM      3  C   UNL     1      28.149  24.075  30.201  1.00  0.00     0.133 C 
BRANCH   3   4
ATOM      4  C   UNL     1      28.348  23.542  28.775  1.00  0.00     0.198 C 
ATOM      5  C   UNL     1      29.462  24.251  28.095  1.00  0.00     0.038 A 
ATOM      6  C   UNL     1      27.159  23.990  27.879  1.00  0.00     0.348 C 
ATOM      7  C   UNL     1      30.824  24.256  28.355  1.00  0.00     0.011 A 
ATOM      8  C   UNL     1      28.939  24.991  27.051  1.00  0.00     0.137 A 
ATOM      9  O   UNL     1      27.570  24.885  26.894  1.00  0.00    -0.424 OA
ATOM     10  O   UNL     1      25.991  23.653  28.026  1.00  0.00    -0.248 OA
ATOM     11  C   UNL     1      31.650  25.038  27.543  1.00  0.00     0.001 A 
ATOM     12  C   UNL     1      29.736  25.772  26.236  1.00  0.00     0.047 A 
ATOM     13  C   UNL     1      31.109  25.794  26.491  1.00  0.00     0.004 A 
BRANCH   4  14
ATOM     14  O   UNL     1      28.644  22.157  28.760  1.00  0.00    -0.373 OA
ATOM     15  H   UNL     1      28.161  21.766  29.522  1.00  0.00     0.212 HD
ENDBRANCH   4  14
ENDBRANCH   3   4
ENDBRANCH   1   3
BRANCH   1  16
ATOM     16  C   UNL     1      29.055  26.505  30.266  1.00  0.00     0.018 A 
ATOM     17  C   UNL     1      29.167  27.618  29.422  1.00  0.00     0.019 A 
ATOM     18  C   UNL     1      30.065  26.237  31.201  1.00  0.00     0.019 A 
ATOM     19  C   UNL     1      30.277  28.466  29.523  1.00  0.00     0.086 A 
ATOM     20  C   UNL     1      31.175  27.080  31.309  1.00  0.00     0.086 A 
ATOM     21  C   UNL     1      31.277  28.195  30.469  1.00  0.00     0.269 A 
BRANCH  21  22
ATOM     22  N   UNL     1      32.441  29.085  30.573  1.00  0.00     0.062 N 
ATOM     23  O   UNL     1      32.948  29.242  31.692  1.00  0.00    -0.258 OA
ATOM     24  O   UNL     1      32.845  29.626  29.534  1.00  0.00    -0.258 OA
ENDBRANCH  21  22
ENDBRANCH   1  16
TORSDOF 5
ENDMDL
MODEL 8
REMARK VINA RESULT:    -4.981      3.130      4.886
REMARK INTER + INTRA:          -7.424
REMARK INTER:                  -6.342
REMARK INTRA:                  -1.082
REMARK UNBOUND:                -1.133
REMARK SMILES O=C(C[C@@]1(O)C(=O)Oc2ccccc21)c1ccc([N+](=O)[O-])cc1
REMARK SMILES IDX 2 1 1 2 3 3 4 4 14 5 6 6 13 7 9 8 8 9 7 10 12 11 10 12 11 13
REMARK SMILES IDX 5 14 15 16 16 17 23 18 17 19 22 20 18 21 19 22 20 23 21 24
REMARK H PARENT 5 15
ROOT
ATOM      1  C   UNL     1      31.570  28.313  28.600  1.00  0.00     0.166 C 
ATOM      2  O   UNL     1      31.762  29.427  29.082  1.00  0.00    -0.294 OA
ENDROOT
BRANCH   1   3
ATOM      3  C   UNL     1      30.176  27.723  28.495  1.00  0.00     0.133 C 
BRANCH   3   4
ATOM      4  C   UNL     1      29.612  27.395  29.884  1.00  0.00     0.198 C 
ATOM      5  C   UNL     1      29.311  25.945  30.005  1.00  0.00     0.038 A 
ATOM      6  C   UNL     1      28.176  27.977  30.015  1.00  0.00     0.348 C 
ATOM      7  C   UNL     1      30.154  24.845  30.014  1.00  0.00     0.011 A 
ATOM      8  C   UNL     1      27.943  25.789  30.125  1.00  0.00     0.137 A 
ATOM      9  O   UNL     1      27.221  26.967  30.116  1.00  0.00    -0.424 OA
ATOM     10  O   UNL     1      27.885  29.167  29.990  1.00  0.00    -0.248 OA
ATOM     11  C   UNL     1      29.584  23.574  30.134  1.00  0.00     0.001 A 
ATOM     12  C   UNL     1      27.357  24.544  30.243  1.00  0.00     0.047 A 
ATOM     13  C   UNL     1      28.192  23.424  30.245  1.00  0.00     0.004 A 
BRANCH   4  14
ATOM     14  O   UNL     1      30.513  27.738  30.921  1.00  0.00    -0.373 OA
ATOM     15  H   UNL     1      30.640  28.711  30.861  1.00  0.00     0.212 HD
ENDBRANCH   4  14
ENDBRANCH   3   4
ENDBRANCH   1   3
BRANCH   1  16
ATOM     16  C   UNL     1      32.737  27.511  28.134  1.00  0.00     0.018 A 
ATOM     17  C   UNL     1      32.619  26.160  27.784  1.00  0.00     0.019 A 
ATOM     18  C   UNL     1      33.989  28.139  28.068  1.00  0.00     0.019 A 
ATOM     19  C   UNL     1      33.744  25.444  27.357  1.00  0.00     0.086 A 
ATOM     20  C   UNL     1      35.118  27.432  27.642  1.00  0.00     0.086 A 
ATOM     21  C   UNL     1      34.991  26.084  27.286  1.00  0.00     0.269 A 
BRANCH  21  22
ATOM     22  N   UNL     1      36.170  25.332  26.838  1.00  0.00     0.062 N 
ATOM     23  O   UNL     1      37.286  25.764  27.159  1.00  0.00    -0.258 OA
ATOM     24  O   UNL     1      35.978  24.309  26.165  1.00  0.00    -0.258 OA
ENDBRANCH  21  22
ENDBRANCH   1  16
TORSDOF 5
ENDMDL
MODEL 9
REMARK VINA RESULT:    -4.955      3.121      4.302
REMARK INTER + INTRA:          -7.392
REMARK INTER:                  -6.571
REMARK INTRA:                  -0.820
REMARK UNBOUND:                -1.133
REMARK SMILES O=C(C[C@@]1(O)C(=O)Oc2ccccc21)c1ccc([N+](=O)[O-])cc1
REMARK SMILES IDX 2 1 1 2 3 3 4 4 14 5 6 6 13 7 9 8 8 9 7 10 12 11 10 12 11 13
REMARK SMILES IDX 5 14 15 16 16 17 23 18 17 19 22 20 18 21 19 22 20 23 21 24
REMARK H PARENT 5 15
ROOT
ATOM      1  C   UNL     1      30.259  24.628  27.691  1.00  0.00     0.166 C 
ATOM      2  O   UNL     1      30.082  23.450  27.997  1.00  0.00    -0.294 OA
ENDROOT
BRANCH   1   3
ATOM      3  C   UNL     1      29.182  25.674  27.911  1.00  0.00     0.133 C 
BRANCH   3   4
ATOM      4  C   UNL     1      28.898  25.864  29.408  1.00  0.00     0.198 C 
ATOM      5  C   UNL     1      27.592  25.261  29.781  1.00  0.00     0.038 A 
ATOM      6  C   UNL     1      28.592  27.361  29.696  1.00  0.00     0.348 C 
ATOM      7  C   UNL     1      27.180  23.938  29.803  1.00  0.00     0.011 A 
ATOM      8  C   UNL     1      26.729  26.276  30.150  1.00  0.00     0.137 A 
ATOM      9  O   UNL     1      27.271  27.546  30.097  1.00  0.00    -0.424 OA
ATOM     10  O   UNL     1      29.380  28.288  29.553  1.00  0.00    -0.248 OA
ATOM     11  C   UNL     1      25.868  23.659  30.194  1.00  0.00     0.001 A 
ATOM     12  C   UNL     1      25.428  26.025  30.539  1.00  0.00     0.047 A 
ATOM     13  C   UNL     1      24.996  24.696  30.557  1.00  0.00     0.004 A 
BRANCH   4  14
ATOM     14  O   UNL     1      29.895  25.271  30.220  1.00  0.00    -0.373 OA
ATOM     15  H   UNL     1      30.044  24.370  29.856  1.00  0.00     0.212 HD
ENDBRANCH   4  14
ENDBRANCH   3   4
ENDBRANCH   1   3
BRANCH   1  16
ATOM     16  C   UNL     1      31.548  25.032  27.063  1.00  0.00     0.018 A 
ATOM     17  C   UNL     1      31.719  25.070  25.673  1.00  0.00     0.019 A 
ATOM     18  C   UNL     1      32.621  25.361  27.904  1.00  0.00     0.019 A 
ATOM     19  C   UNL     1      32.951  25.450  25.126  1.00  0.00     0.086 A 
ATOM     20  C   UNL     1      33.854  25.742  27.366  1.00  0.00     0.086 A 
ATOM     21  C   UNL     1      34.015  25.787  25.976  1.00  0.00     0.269 A 
BRANCH  21  22
ATOM     22  N   UNL     1      35.307  26.185  25.402  1.00  0.00     0.062 N 
ATOM     23  O   UNL     1      35.339  26.469  24.197  1.00  0.00    -0.258 OA
ATOM     24  O   UNL     1      36.288  26.212  26.159  1.00  0.00    -0.258 OA
ENDBRANCH  21  22
ENDBRANCH   1  16
TORSDOF 5
ENDMDL
MODEL 10
REMARK VINA RESULT:    -4.955      3.263      4.342
REMARK INTER + INTRA:          -7.391
REMARK INTER:                  -6.547
REMARK INTRA:                  -0.844
REMARK UNBOUND:                -1.133
REMARK SMILES O=C(C[C@@]1(O)C(=O)Oc2ccccc21)c1ccc([N+](=O)[O-])cc1
REMARK SMILES IDX 2 1 1 2 3 3 4 4 14 5 6 6 13 7 9 8 8 9 7 10 12 11 10 12 11 13
REMARK SMILES IDX 5 14 15 16 16 17 23 18 17 19 22 20 18 21 19 22 20 23 21 24
REMARK H PARENT 5 15
ROOT
ATOM      1  C   UNL     1      30.738  26.205  26.985  1.00  0.00     0.166 C 
ATOM      2  O   UNL     1      30.143  26.997  26.256  1.00  0.00    -0.294 OA
ENDROOT
BRANCH   1   3
ATOM      3  C   UNL     1      30.101  25.661  28.250  1.00  0.00     0.133 C 
BRANCH   3   4
ATOM      4  C   UNL     1      29.126  24.520  27.928  1.00  0.00     0.198 C 
ATOM      5  C   UNL     1      27.751  24.852  28.384  1.00  0.00     0.038 A 
ATOM      6  C   UNL     1      29.425  23.302  28.848  1.00  0.00     0.348 C 
ATOM      7  C   UNL     1      26.864  25.823  27.947  1.00  0.00     0.011 A 
ATOM      8  C   UNL     1      27.408  23.989  29.408  1.00  0.00     0.137 A 
ATOM      9  O   UNL     1      28.378  23.061  29.734  1.00  0.00    -0.424 OA
ATOM     10  O   UNL     1      30.460  22.647  28.847  1.00  0.00    -0.248 OA
ATOM     11  C   UNL     1      25.620  25.915  28.577  1.00  0.00     0.001 A 
ATOM     12  C   UNL     1      26.185  24.062  30.046  1.00  0.00     0.047 A 
ATOM     13  C   UNL     1      25.283  25.041  29.622  1.00  0.00     0.004 A 
BRANCH   4  14
ATOM     14  O   UNL     1      29.067  24.244  26.540  1.00  0.00    -0.373 OA
ATOM     15  H   UNL     1      28.617  25.015  26.128  1.00  0.00     0.212 HD
ENDBRANCH   4  14
ENDBRANCH   3   4
ENDBRANCH   1   3
BRANCH   1  16
ATOM     16  C   UNL     1      32.126  25.794  26.634  1.00  0.00     0.018 A 
ATOM     17  C   UNL     1      33.158  25.770  27.582  1.00  0.00     0.019 A 
ATOM     18  C   UNL     1      32.397  25.442  25.303  1.00  0.00     0.019 A 
ATOM     19  C   UNL     1      34.449  25.382  27.205  1.00  0.00     0.086 A 
ATOM     20  C   UNL     1      33.684  25.053  24.919  1.00  0.00     0.086 A 
ATOM     21  C   UNL     1      34.708  25.023  25.873  1.00  0.00     0.269 A 
BRANCH  21  22
ATOM     22  N   UNL     1      36.063  24.617  25.479  1.00  0.00     0.062 N 
ATOM     23  O   UNL     1      36.971  25.452  25.592  1.00  0.00    -0.258 OA
ATOM     24  O   UNL     1      36.216  23.461  25.056  1.00  0.00    -0.258 OA
ENDBRANCH  21  22
ENDBRANCH   1  16
TORSDOF 5
ENDMDL
MODEL 11
REMARK VINA RESULT:    -4.919      2.729      4.040
REMARK INTER + INTRA:          -7.346
REMARK INTER:                  -6.279
REMARK INTRA:                  -1.067
REMARK UNBOUND:                -1.133
REMARK SMILES O=C(C[C@@]1(O)C(=O)Oc2ccccc21)c1ccc([N+](=O)[O-])cc1
REMARK SMILES IDX 2 1 1 2 3 3 4 4 14 5 6 6 13 7 9 8 8 9 7 10 12 11 10 12 11 13
REMARK SMILES IDX 5 14 15 16 16 17 23 18 17 19 22 20 18 21 19 22 20 23 21 24
REMARK H PARENT 5 15
ROOT
ATOM      1  C   UNL     1      32.676  28.045  27.755  1.00  0.00     0.166 C 
ATOM      2  O   UNL     1      32.439  28.730  26.762  1.00  0.00    -0.294 OA
ENDROOT
BRANCH   1   3
ATOM      3  C   UNL     1      32.410  26.551  27.768  1.00  0.00     0.133 C 
BRANCH   3   4
ATOM      4  C   UNL     1      30.903  26.259  27.731  1.00  0.00     0.198 C 
ATOM      5  C   UNL     1      30.473  25.534  28.954  1.00  0.00     0.038 A 
ATOM      6  C   UNL     1      30.608  25.173  26.658  1.00  0.00     0.348 C 
ATOM      7  C   UNL     1      30.430  25.940  30.278  1.00  0.00     0.011 A 
ATOM      8  C   UNL     1      30.071  24.261  28.591  1.00  0.00     0.137 A 
ATOM      9  O   UNL     1      30.151  23.992  27.238  1.00  0.00    -0.424 OA
ATOM     10  O   UNL     1      30.787  25.296  25.453  1.00  0.00    -0.248 OA
ATOM     11  C   UNL     1      29.982  25.028  31.237  1.00  0.00     0.001 A 
ATOM     12  C   UNL     1      29.626  23.342  29.521  1.00  0.00     0.047 A 
ATOM     13  C   UNL     1      29.585  23.735  30.861  1.00  0.00     0.004 A 
BRANCH   4  14
ATOM     14  O   UNL     1      30.133  27.444  27.637  1.00  0.00    -0.373 OA
ATOM     15  H   UNL     1      30.766  28.189  27.734  1.00  0.00     0.212 HD
ENDBRANCH   4  14
ENDBRANCH   3   4
ENDBRANCH   1   3
BRANCH   1  16
ATOM     16  C   UNL     1      33.207  28.701  28.982  1.00  0.00     0.018 A 
ATOM     17  C   UNL     1      32.446  28.815  30.154  1.00  0.00     0.019 A 
ATOM     18  C   UNL     1      34.504  29.233  28.941  1.00  0.00     0.019 A 
ATOM     19  C   UNL     1      32.985  29.446  31.282  1.00  0.00     0.086 A 
ATOM     20  C   UNL     1      35.049  29.863  30.064  1.00  0.00     0.086 A 
ATOM     21  C   UNL     1      34.287  29.966  31.234  1.00  0.00     0.269 A 
BRANCH  21  22
ATOM     22  N   UNL     1      34.850  30.628  32.418  1.00  0.00     0.062 N 
ATOM     23  O   UNL     1      34.081  30.890  33.353  1.00  0.00    -0.258 OA
ATOM     24  O   UNL     1      36.064  30.884  32.410  1.00  0.00    -0.258 OA
ENDBRANCH  21  22
ENDBRANCH   1  16
TORSDOF 5
ENDMDL
MODEL 12
REMARK VINA RESULT:    -4.919     10.277     13.012
REMARK INTER + INTRA:          -7.346
REMARK INTER:                  -6.073
REMARK INTRA:                  -1.273
REMARK UNBOUND:                -1.133
REMARK SMILES O=C(C[C@@]1(O)C(=O)Oc2ccccc21)c1ccc([N+](=O)[O-])cc1
REMARK SMILES IDX 2 1 1 2 3 3 4 4 14 5 6 6 13 7 9 8 8 9 7 10 12 11 10 12 11 13
REMARK SMILES IDX 5 14 15 16 16 17 23 18 17 19 22 20 18 21 19 22 20 23 21 24
REMARK H PARENT 5 15
ROOT
ATOM      1  C   UNL     1      39.345  25.781  29.257  1.00  0.00     0.166 C 
ATOM      2  O   UNL     1      38.466  25.936  28.412  1.00  0.00    -0.294 OA
ENDROOT
BRANCH   1   3
ATOM      3  C   UNL     1      39.108  26.115  30.718  1.00  0.00     0.133 C 
BRANCH   3   4
ATOM      4  C   UNL     1      39.409  27.594  31.000  1.00  0.00     0.198 C 
ATOM      5  C   UNL     1      40.709  27.745  31.705  1.00  0.00     0.038 A 
ATOM      6  C   UNL     1      38.446  28.122  32.101  1.00  0.00     0.348 C 
ATOM      7  C   UNL     1      42.003  27.494  31.278  1.00  0.00     0.011 A 
ATOM      8  C   UNL     1      40.464  28.221  32.980  1.00  0.00     0.137 A 
ATOM      9  O   UNL     1      39.132  28.443  33.270  1.00  0.00    -0.424 OA
ATOM     10  O   UNL     1      37.229  28.214  31.997  1.00  0.00    -0.248 OA
ATOM     11  C   UNL     1      43.052  27.721  32.173  1.00  0.00     0.001 A 
ATOM     12  C   UNL     1      41.484  28.453  33.882  1.00  0.00     0.047 A 
ATOM     13  C   UNL     1      42.794  28.195  33.469  1.00  0.00     0.004 A 
BRANCH   4  14
ATOM     14  O   UNL     1      39.469  28.362  29.813  1.00  0.00    -0.373 OA
ATOM     15  H   UNL     1      39.110  27.790  29.099  1.00  0.00     0.212 HD
ENDBRANCH   4  14
ENDBRANCH   3   4
ENDBRANCH   1   3
BRANCH   1  16
ATOM     16  C   UNL     1      40.683  25.281  28.833  1.00  0.00     0.018 A 
ATOM     17  C   UNL     1      41.394  24.332  29.579  1.00  0.00     0.019 A 
ATOM     18  C   UNL     1      41.243  25.802  27.657  1.00  0.00     0.019 A 
ATOM     19  C   UNL     1      42.652  23.896  29.145  1.00  0.00     0.086 A 
ATOM     20  C   UNL     1      42.498  25.370  27.216  1.00  0.00     0.086 A 
ATOM     21  C   UNL     1      43.199  24.415  27.962  1.00  0.00     0.269 A 
BRANCH  21  22
ATOM     22  N   UNL     1      44.518  23.957  27.508  1.00  0.00     0.062 N 
ATOM     23  O   UNL     1      45.338  23.613  28.370  1.00  0.00    -0.258 OA
ATOM     24  O   UNL     1      44.732  23.941  26.286  1.00  0.00    -0.258 OA
ENDBRANCH  21  22
ENDBRANCH   1  16
TORSDOF 5
ENDMDL
MODEL 13
REMARK VINA RESULT:    -4.911      3.314      4.437
REMARK INTER + INTRA:          -7.337
REMARK INTER:                  -6.299
REMARK INTRA:                  -1.038
REMARK UNBOUND:                -1.133
REMARK SMILES O=C(C[C@@]1(O)C(=O)Oc2ccccc21)c1ccc([N+](=O)[O-])cc1
REMARK SMILES IDX 2 1 1 2 3 3 4 4 14 5 6 6 13 7 9 8 8 9 7 10 12 11 10 12 11 13
REMARK SMILES IDX 5 14 15 16 16 17 23 18 17 19 22 20 18 21 19 22 20 23 21 24
REMARK H PARENT 5 15
ROOT
ATOM      1  C   UNL     1      32.159  26.189  25.891  1.00  0.00     0.166 C 
ATOM      2  O   UNL     1      31.780  27.008  25.055  1.00  0.00    -0.294 OA
ENDROOT
BRANCH   1   3
ATOM      3  C   UNL     1      31.285  25.022  26.310  1.00  0.00     0.133 C 
BRANCH   3   4
ATOM      4  C   UNL     1      30.030  25.511  27.047  1.00  0.00     0.198 C 
ATOM      5  C   UNL     1      30.091  25.160  28.490  1.00  0.00     0.038 A 
ATOM      6  C   UNL     1      28.805  24.656  26.616  1.00  0.00     0.348 C 
ATOM      7  C   UNL     1      30.936  25.607  29.493  1.00  0.00     0.011 A 
ATOM      8  C   UNL     1      29.100  24.235  28.759  1.00  0.00     0.137 A 
ATOM      9  O   UNL     1      28.320  23.888  27.672  1.00  0.00    -0.424 OA
ATOM     10  O   UNL     1      28.332  24.608  25.487  1.00  0.00    -0.248 OA
ATOM     11  C   UNL     1      30.768  25.088  30.780  1.00  0.00     0.001 A 
ATOM     12  C   UNL     1      28.916  23.708  30.022  1.00  0.00     0.047 A 
ATOM     13  C   UNL     1      29.765  24.142  31.043  1.00  0.00     0.004 A 
BRANCH   4  14
ATOM     14  O   UNL     1      29.867  26.914  26.950  1.00  0.00    -0.373 OA
ATOM     15  H   UNL     1      29.827  27.249  27.873  1.00  0.00     0.212 HD
ENDBRANCH   4  14
ENDBRANCH   3   4
ENDBRANCH   1   3
BRANCH   1  16
ATOM     16  C   UNL     1      33.495  26.364  26.526  1.00  0.00     0.018 A 
ATOM     17  C   UNL     1      33.848  27.537  27.207  1.00  0.00     0.019 A 
ATOM     18  C   UNL     1      34.425  25.320  26.414  1.00  0.00     0.019 A 
ATOM     19  C   UNL     1      35.117  27.660  27.784  1.00  0.00     0.086 A 
ATOM     20  C   UNL     1      35.695  25.434  26.988  1.00  0.00     0.086 A 
ATOM     21  C   UNL     1      36.037  26.605  27.674  1.00  0.00     0.269 A 
BRANCH  21  22
ATOM     22  N   UNL     1      37.369  26.736  28.279  1.00  0.00     0.062 N 
ATOM     23  O   UNL     1      37.599  27.748  28.955  1.00  0.00    -0.258 OA
ATOM     24  O   UNL     1      38.184  25.823  28.077  1.00  0.00    -0.258 OA
ENDBRANCH  21  22
ENDBRANCH   1  16
TORSDOF 5
ENDMDL
MODEL 14
REMARK VINA RESULT:    -4.908      3.086      6.473
REMARK INTER + INTRA:          -7.332
REMARK INTER:                  -6.414
REMARK INTRA:                  -0.918
REMARK UNBOUND:                -1.133
REMARK SMILES O=C(C[C@@]1(O)C(=O)Oc2ccccc21)c1ccc([N+](=O)[O-])cc1
REMARK SMILES IDX 2 1 1 2 3 3 4 4 14 5 6 6 13 7 9 8 8 9 7 10 12 11 10 12 11 13
REMARK SMILES IDX 5 14 15 16 16 17 23 18 17 19 22 20 18 21 19 22 20 23 21 24
REMARK H PARENT 5 15
ROOT
ATOM      1  C   UNL     1      30.441  26.835  29.541  1.00  0.00     0.166 C 
ATOM      2  O   UNL     1      31.187  27.088  30.484  1.00  0.00    -0.294 OA
ENDROOT
BRANCH   1   3
ATOM      3  C   UNL     1      30.952  26.799  28.113  1.00  0.00     0.133 C 
BRANCH   3   4
ATOM      4  C   UNL     1      31.544  25.424  27.774  1.00  0.00     0.198 C 
ATOM      5  C   UNL     1      32.805  25.565  27.001  1.00  0.00     0.038 A 
ATOM      6  C   UNL     1      30.656  24.720  26.710  1.00  0.00     0.348 C 
ATOM      7  C   UNL     1      34.038  26.080  27.369  1.00  0.00     0.011 A 
ATOM      8  C   UNL     1      32.597  25.069  25.728  1.00  0.00     0.137 A 
ATOM      9  O   UNL     1      31.328  24.573  25.499  1.00  0.00    -0.424 OA
ATOM     10  O   UNL     1      29.493  24.370  26.872  1.00  0.00    -0.248 OA
ATOM     11  C   UNL     1      35.060  26.096  26.416  1.00  0.00     0.001 A 
ATOM     12  C   UNL     1      33.592  25.076  24.769  1.00  0.00     0.047 A 
ATOM     13  C   UNL     1      34.838  25.599  25.122  1.00  0.00     0.004 A 
BRANCH   4  14
ATOM     14  O   UNL     1      31.831  24.666  28.936  1.00  0.00    -0.373 OA
ATOM     15  H   UNL     1      30.963  24.460  29.348  1.00  0.00     0.212 HD
ENDBRANCH   4  14
ENDBRANCH   3   4
ENDBRANCH   1   3
BRANCH   1  16
ATOM     16  C   UNL     1      28.995  26.585  29.803  1.00  0.00     0.018 A 
ATOM     17  C   UNL     1      28.491  25.297  30.028  1.00  0.00     0.019 A 
ATOM     18  C   UNL     1      28.122  27.683  29.803  1.00  0.00     0.019 A 
ATOM     19  C   UNL     1      27.124  25.110  30.265  1.00  0.00     0.086 A 
ATOM     20  C   UNL     1      26.755  27.504  30.039  1.00  0.00     0.086 A 
ATOM     21  C   UNL     1      26.260  26.216  30.271  1.00  0.00     0.269 A 
BRANCH  21  22
ATOM     22  N   UNL     1      24.827  26.017  30.520  1.00  0.00     0.062 N 
ATOM     23  O   UNL     1      24.138  25.567  29.594  1.00  0.00    -0.258 OA
ATOM     24  O   UNL     1      24.391  26.312  31.642  1.00  0.00    -0.258 OA
ENDBRANCH  21  22
ENDBRANCH   1  16
TORSDOF 5
ENDMDL
MODEL 15
REMARK VINA RESULT:    -4.898      4.148      8.208
REMARK INTER + INTRA:          -7.319
REMARK INTER:                  -6.672
REMARK INTRA:                  -0.648
REMARK UNBOUND:                -1.133
REMARK SMILES O=C(C[C@@]1(O)C(=O)Oc2ccccc21)c1ccc([N+](=O)[O-])cc1
REMARK SMILES IDX 2 1 1 2 3 3 4 4 14 5 6 6 13 7 9 8 8 9 7 10 12 11 10 12 11 13
REMARK SMILES IDX 5 14 15 16 16 17 23 18 17 19 22 20 18 21 19 22 20 23 21 24
REMARK H PARENT 5 15
ROOT
ATOM      1  C   UNL     1      32.135  26.253  28.087  1.00  0.00     0.166 C 
ATOM      2  O   UNL     1      31.897  27.459  28.070  1.00  0.00    -0.294 OA
ENDROOT
BRANCH   1   3
ATOM      3  C   UNL     1      33.532  25.717  27.834  1.00  0.00     0.133 C 
BRANCH   3   4
ATOM      4  C   UNL     1      34.262  26.560  26.780  1.00  0.00     0.198 C 
ATOM      5  C   UNL     1      35.241  25.735  26.026  1.00  0.00     0.038 A 
ATOM      6  C   UNL     1      35.233  27.550  27.483  1.00  0.00     0.348 C 
ATOM      7  C   UNL     1      35.048  24.681  25.146  1.00  0.00     0.011 A 
ATOM      8  C   UNL     1      36.515  26.182  26.325  1.00  0.00     0.137 A 
ATOM      9  O   UNL     1      36.564  27.247  27.204  1.00  0.00    -0.424 OA
ATOM     10  O   UNL     1      34.901  28.462  28.230  1.00  0.00    -0.248 OA
ATOM     11  C   UNL     1      36.173  24.075  24.582  1.00  0.00     0.001 A 
ATOM     12  C   UNL     1      37.641  25.597  25.781  1.00  0.00     0.047 A 
ATOM     13  C   UNL     1      37.463  24.528  24.900  1.00  0.00     0.004 A 
BRANCH   4  14
ATOM     14  O   UNL     1      33.368  27.134  25.843  1.00  0.00    -0.373 OA
ATOM     15  H   UNL     1      33.836  27.126  24.979  1.00  0.00     0.212 HD
ENDBRANCH   4  14
ENDBRANCH   3   4
ENDBRANCH   1   3
BRANCH   1  16
ATOM     16  C   UNL     1      31.021  25.294  28.333  1.00  0.00     0.018 A 
ATOM     17  C   UNL     1      30.008  25.073  27.391  1.00  0.00     0.019 A 
ATOM     18  C   UNL     1      30.990  24.615  29.560  1.00  0.00     0.019 A 
ATOM     19  C   UNL     1      28.977  24.167  27.668  1.00  0.00     0.086 A 
ATOM     20  C   UNL     1      29.964  23.708  29.844  1.00  0.00     0.086 A 
ATOM     21  C   UNL     1      28.960  23.486  28.895  1.00  0.00     0.269 A 
BRANCH  21  22
ATOM     22  N   UNL     1      27.877  22.536  29.184  1.00  0.00     0.062 N 
ATOM     23  O   UNL     1      27.195  22.731  30.200  1.00  0.00    -0.258 OA
ATOM     24  O   UNL     1      27.712  21.596  28.394  1.00  0.00    -0.258 OA
ENDBRANCH  21  22
ENDBRANCH   1  16
TORSDOF 5
ENDMDL
MODEL 16
REMARK VINA RESULT:    -4.858      8.927     11.674
REMARK INTER + INTRA:          -7.270
REMARK INTER:                  -6.459
REMARK INTRA:                  -0.810
REMARK UNBOUND:                -1.133
REMARK SMILES O=C(C[C@@]1(O)C(=O)Oc2ccccc21)c1ccc([N+](=O)[O-])cc1
REMARK SMILES IDX 2 1 1 2 3 3 4 4 14 5 6 6 13 7 9 8 8 9 7 10 12 11 10 12 11 13
REMARK SMILES IDX 5 14 15 16 16 17 23 18 17 19 22 20 18 21 19 22 20 23 21 24
REMARK H PARENT 5 15
ROOT
ATOM      1  C   UNL     1      40.183  26.304  29.227  1.00  0.00     0.166 C 
ATOM      2  O   UNL     1      39.533  26.101  28.203  1.00  0.00    -0.294 OA
ENDROOT
BRANCH   1   3
ATOM      3  C   UNL     1      39.810  27.411  30.195  1.00  0.00     0.133 C 
BRANCH   3   4
ATOM      4  C   UNL     1      38.473  27.110  30.887  1.00  0.00     0.198 C 
ATOM      5  C   UNL     1      37.394  27.985  30.359  1.00  0.00     0.038 A 
ATOM      6  C   UNL     1      38.523  27.607  32.359  1.00  0.00     0.348 C 
ATOM      7  C   UNL     1      36.809  28.041  29.104  1.00  0.00     0.011 A 
ATOM      8  C   UNL     1      36.984  28.835  31.369  1.00  0.00     0.137 A 
ATOM      9  O   UNL     1      37.640  28.663  32.573  1.00  0.00    -0.424 OA
ATOM     10  O   UNL     1      39.266  27.174  33.231  1.00  0.00    -0.248 OA
ATOM     11  C   UNL     1      35.804  28.988  28.883  1.00  0.00     0.001 A 
ATOM     12  C   UNL     1      35.995  29.779  31.174  1.00  0.00     0.047 A 
ATOM     13  C   UNL     1      35.402  29.854  29.911  1.00  0.00     0.004 A 
BRANCH   4  14
ATOM     14  O   UNL     1      38.068  25.766  30.703  1.00  0.00    -0.373 OA
ATOM     15  H   UNL     1      38.667  25.391  30.019  1.00  0.00     0.212 HD
ENDBRANCH   4  14
ENDBRANCH   3   4
ENDBRANCH   1   3
BRANCH   1  16
ATOM     16  C   UNL     1      41.380  25.464  29.507  1.00  0.00     0.018 A 
ATOM     17  C   UNL     1      41.322  24.063  29.513  1.00  0.00     0.019 A 
ATOM     18  C   UNL     1      42.592  26.109  29.793  1.00  0.00     0.019 A 
ATOM     19  C   UNL     1      42.472  23.314  29.788  1.00  0.00     0.086 A 
ATOM     20  C   UNL     1      43.745  25.367  30.068  1.00  0.00     0.086 A 
ATOM     21  C   UNL     1      43.681  23.969  30.063  1.00  0.00     0.269 A 
BRANCH  21  22
ATOM     22  N   UNL     1      44.887  23.181  30.352  1.00  0.00     0.062 N 
ATOM     23  O   UNL     1      45.262  23.112  31.530  1.00  0.00    -0.258 OA
ATOM     24  O   UNL     1      45.456  22.632  29.397  1.00  0.00    -0.258 OA
ENDBRANCH  21  22
ENDBRANCH   1  16
TORSDOF 5
ENDMDL
MODEL 17
REMARK VINA RESULT:    -4.854      3.655      4.903
REMARK INTER + INTRA:          -7.264
REMARK INTER:                  -6.168
REMARK INTRA:                  -1.096
REMARK UNBOUND:                -1.133
REMARK SMILES O=C(C[C@@]1(O)C(=O)Oc2ccccc21)c1ccc([N+](=O)[O-])cc1
REMARK SMILES IDX 2 1 1 2 3 3 4 4 14 5 6 6 13 7 9 8 8 9 7 10 12 11 10 12 11 13
REMARK SMILES IDX 5 14 15 16 16 17 23 18 17 19 22 20 18 21 19 22 20 23 21 24
REMARK H PARENT 5 15
ROOT
ATOM      1  C   UNL     1      31.143  25.631  25.475  1.00  0.00     0.166 C 
ATOM      2  O   UNL     1      30.723  26.475  24.686  1.00  0.00    -0.294 OA
ENDROOT
BRANCH   1   3
ATOM      3  C   UNL     1      30.199  24.731  26.251  1.00  0.00     0.133 C 
BRANCH   3   4
ATOM      4  C   UNL     1      29.348  25.545  27.235  1.00  0.00     0.198 C 
ATOM      5  C   UNL     1      29.454  24.993  28.611  1.00  0.00     0.038 A 
ATOM      6  C   UNL     1      27.840  25.287  26.959  1.00  0.00     0.348 C 
ATOM      7  C   UNL     1      30.530  24.938  29.482  1.00  0.00     0.011 A 
ATOM      8  C   UNL     1      28.222  24.481  28.974  1.00  0.00     0.137 A 
ATOM      9  O   UNL     1      27.234  24.614  28.018  1.00  0.00    -0.424 OA
ATOM     10  O   UNL     1      27.243  25.585  25.932  1.00  0.00    -0.248 OA
ATOM     11  C   UNL     1      30.341  24.341  30.732  1.00  0.00     0.001 A 
ATOM     12  C   UNL     1      28.012  23.885  30.203  1.00  0.00     0.047 A 
ATOM     13  C   UNL     1      29.089  23.814  31.089  1.00  0.00     0.004 A 
BRANCH   4  14
ATOM     14  O   UNL     1      29.742  26.904  27.284  1.00  0.00    -0.373 OA
ATOM     15  H   UNL     1      30.715  26.912  27.142  1.00  0.00     0.212 HD
ENDBRANCH   4  14
ENDBRANCH   3   4
ENDBRANCH   1   3
BRANCH   1  16
ATOM     16  C   UNL     1      32.612  25.508  25.697  1.00  0.00     0.018 A 
ATOM     17  C   UNL     1      33.190  25.673  26.963  1.00  0.00     0.019 A 
ATOM     18  C   UNL     1      33.430  25.240  24.589  1.00  0.00     0.019 A 
ATOM     19  C   UNL     1      34.576  25.555  27.122  1.00  0.00     0.086 A 
ATOM     20  C   UNL     1      34.814  25.120  24.741  1.00  0.00     0.086 A 
ATOM     21  C   UNL     1      35.384  25.276  26.010  1.00  0.00     0.269 A 
BRANCH  21  22
ATOM     22  N   UNL     1      36.837  25.153  26.179  1.00  0.00     0.062 N 
ATOM     23  O   UNL     1      37.484  24.636  25.257  1.00  0.00    -0.258 OA
ATOM     24  O   UNL     1      37.331  25.576  27.235  1.00  0.00    -0.258 OA
ENDBRANCH  21  22
ENDBRANCH   1  16
TORSDOF 5
ENDMDL
MODEL 18
REMARK VINA RESULT:    -4.765      1.999      3.343
REMARK INTER + INTRA:          -7.152
REMARK INTER:                  -6.321
REMARK INTRA:                  -0.830
REMARK UNBOUND:                -1.133
REMARK SMILES O=C(C[C@@]1(O)C(=O)Oc2ccccc21)c1ccc([N+](=O)[O-])cc1
REMARK SMILES IDX 2 1 1 2 3 3 4 4 14 5 6 6 13 7 9 8 8 9 7 10 12 11 10 12 11 13
REMARK SMILES IDX 5 14 15 16 16 17 23 18 17 19 22 20 18 21 19 22 20 23 21 24
REMARK H PARENT 5 15
ROOT
ATOM      1  C   UNL     1      30.544  27.727  30.178  1.00  0.00     0.166 C 
ATOM      2  O   UNL     1      29.518  28.401  30.248  1.00  0.00    -0.294 OA
ENDROOT
BRANCH   1   3
ATOM      3  C   UNL     1      30.500  26.211  30.216  1.00  0.00     0.133 C 
BRANCH   3   4
ATOM      4  C   UNL     1      29.790  25.650  28.975  1.00  0.00     0.198 C 
ATOM      5  C   UNL     1      28.617  24.825  29.363  1.00  0.00     0.038 A 
ATOM      6  C   UNL     1      30.678  24.556  28.316  1.00  0.00     0.348 C 
ATOM      7  C   UNL     1      27.421  25.181  29.968  1.00  0.00     0.011 A 
ATOM      8  C   UNL     1      28.869  23.511  29.015  1.00  0.00     0.137 A 
ATOM      9  O   UNL     1      30.091  23.296  28.407  1.00  0.00    -0.424 OA
ATOM     10  O   UNL     1      31.780  24.742  27.813  1.00  0.00    -0.248 OA
ATOM     11  C   UNL     1      26.485  24.177  30.227  1.00  0.00     0.001 A 
ATOM     12  C   UNL     1      27.960  22.501  29.263  1.00  0.00     0.047 A 
ATOM     13  C   UNL     1      26.754  22.843  29.880  1.00  0.00     0.004 A 
BRANCH   4  14
ATOM     14  O   UNL     1      29.333  26.675  28.113  1.00  0.00    -0.373 OA
ATOM     15  H   UNL     1      30.005  27.390  28.159  1.00  0.00     0.212 HD
ENDBRANCH   4  14
ENDBRANCH   3   4
ENDBRANCH   1   3
BRANCH   1  16
ATOM     16  C   UNL     1      31.861  28.415  30.081  1.00  0.00     0.018 A 
ATOM     17  C   UNL     1      32.560  28.518  28.871  1.00  0.00     0.019 A 
ATOM     18  C   UNL     1      32.416  28.954  31.251  1.00  0.00     0.019 A 
ATOM     19  C   UNL     1      33.799  29.169  28.828  1.00  0.00     0.086 A 
ATOM     20  C   UNL     1      33.652  29.606  31.217  1.00  0.00     0.086 A 
ATOM     21  C   UNL     1      34.340  29.713  30.003  1.00  0.00     0.269 A 
BRANCH  21  22
ATOM     22  N   UNL     1      35.640  30.395  29.957  1.00  0.00     0.062 N 
ATOM     23  O   UNL     1      36.661  29.699  30.046  1.00  0.00    -0.258 OA
ATOM     24  O   UNL     1      35.638  31.629  29.831  1.00  0.00    -0.258 OA
ENDBRANCH  21  22
ENDBRANCH   1  16
TORSDOF 5
ENDMDL
MODEL 19
REMARK VINA RESULT:    -4.747      5.544      7.676
REMARK INTER + INTRA:          -7.129
REMARK INTER:                  -6.121
REMARK INTRA:                  -1.008
REMARK UNBOUND:                -1.133
REMARK SMILES O=C(C[C@@]1(O)C(=O)Oc2ccccc21)c1ccc([N+](=O)[O-])cc1
REMARK SMILES IDX 2 1 1 2 3 3 4 4 14 5 6 6 13 7 9 8 8 9 7 10 12 11 10 12 11 13
REMARK SMILES IDX 5 14 15 16 16 17 23 18 17 19 22 20 18 21 19 22 20 23 21 24
REMARK H PARENT 5 15
ROOT
ATOM      1  C   UNL     1      37.593  25.800  26.817  1.00  0.00     0.166 C 
ATOM      2  O   UNL     1      38.333  26.075  25.875  1.00  0.00    -0.294 OA
ENDROOT
BRANCH   1   3
ATOM      3  C   UNL     1      36.263  25.102  26.602  1.00  0.00     0.133 C 
BRANCH   3   4
ATOM      4  C   UNL     1      35.293  25.996  25.817  1.00  0.00     0.198 C 
ATOM      5  C   UNL     1      33.927  25.937  26.400  1.00  0.00     0.038 A 
ATOM      6  C   UNL     1      35.015  25.368  24.423  1.00  0.00     0.348 C 
ATOM      7  C   UNL     1      33.446  26.376  27.624  1.00  0.00     0.011 A 
ATOM      8  C   UNL     1      33.086  25.329  25.486  1.00  0.00     0.137 A 
ATOM      9  O   UNL     1      33.691  24.954  24.302  1.00  0.00    -0.424 OA
ATOM     10  O   UNL     1      35.847  25.202  23.539  1.00  0.00    -0.248 OA
ATOM     11  C   UNL     1      32.094  26.176  27.914  1.00  0.00     0.001 A 
ATOM     12  C   UNL     1      31.747  25.121  25.752  1.00  0.00     0.047 A 
ATOM     13  C   UNL     1      31.249  25.549  26.985  1.00  0.00     0.004 A 
BRANCH   4  14
ATOM     14  O   UNL     1      35.702  27.352  25.812  1.00  0.00    -0.373 OA
ATOM     15  H   UNL     1      35.350  27.740  24.981  1.00  0.00     0.212 HD
ENDBRANCH   4  14
ENDBRANCH   3   4
ENDBRANCH   1   3
BRANCH   1  16
ATOM     16  C   UNL     1      37.998  26.187  28.198  1.00  0.00     0.018 A 
ATOM     17  C   UNL     1      37.345  27.204  28.907  1.00  0.00     0.019 A 
ATOM     18  C   UNL     1      39.080  25.515  28.784  1.00  0.00     0.019 A 
ATOM     19  C   UNL     1      37.764  27.538  30.201  1.00  0.00     0.086 A 
ATOM     20  C   UNL     1      39.504  25.842  30.076  1.00  0.00     0.086 A 
ATOM     21  C   UNL     1      38.842  26.854  30.782  1.00  0.00     0.269 A 
BRANCH  21  22
ATOM     22  N   UNL     1      39.281  27.206  32.139  1.00  0.00     0.062 N 
ATOM     23  O   UNL     1      38.470  27.057  33.064  1.00  0.00    -0.258 OA
ATOM     24  O   UNL     1      40.438  27.630  32.277  1.00  0.00    -0.258 OA
ENDBRANCH  21  22
ENDBRANCH   1  16
TORSDOF 5
ENDMDL
MODEL 20
REMARK VINA RESULT:    -4.722      3.736      5.995
REMARK INTER + INTRA:          -7.098
REMARK INTER:                  -6.081
REMARK INTRA:                  -1.016
REMARK UNBOUND:                -1.133
REMARK SMILES O=C(C[C@@]1(O)C(=O)Oc2ccccc21)c1ccc([N+](=O)[O-])cc1
REMARK SMILES IDX 2 1 1 2 3 3 4 4 14 5 6 6 13 7 9 8 8 9 7 10 12 11 10 12 11 13
REMARK SMILES IDX 5 14 15 16 16 17 23 18 17 19 22 20 18 21 19 22 20 23 21 24
REMARK H PARENT 5 15
ROOT
ATOM      1  C   UNL     1      31.678  24.957  27.288  1.00  0.00     0.166 C 
ATOM      2  O   UNL     1      30.669  24.702  26.633  1.00  0.00    -0.294 OA
ENDROOT
BRANCH   1   3
ATOM      3  C   UNL     1      31.637  25.059  28.801  1.00  0.00     0.133 C 
BRANCH   3   4
ATOM      4  C   UNL     1      30.788  26.257  29.248  1.00  0.00     0.198 C 
ATOM      5  C   UNL     1      31.629  27.472  29.411  1.00  0.00     0.038 A 
ATOM      6  C   UNL     1      30.329  26.052  30.720  1.00  0.00     0.348 C 
ATOM      7  C   UNL     1      32.319  28.225  28.474  1.00  0.00     0.011 A 
ATOM      8  C   UNL     1      31.652  27.814  30.750  1.00  0.00     0.137 A 
ATOM      9  O   UNL     1      30.909  26.988  31.573  1.00  0.00    -0.424 OA
ATOM     10  O   UNL     1      29.588  25.161  31.116  1.00  0.00    -0.248 OA
ATOM     11  C   UNL     1      33.048  29.330  28.921  1.00  0.00     0.001 A 
ATOM     12  C   UNL     1      32.366  28.901  31.215  1.00  0.00     0.047 A 
ATOM     13  C   UNL     1      33.075  29.665  30.284  1.00  0.00     0.004 A 
BRANCH   4  14
ATOM     14  O   UNL     1      29.763  26.562  28.320  1.00  0.00    -0.373 OA
ATOM     15  H   UNL     1      29.781  27.538  28.204  1.00  0.00     0.212 HD
ENDBRANCH   4  14
ENDBRANCH   3   4
ENDBRANCH   1   3
BRANCH   1  16
ATOM     16  C   UNL     1      32.965  25.199  26.577  1.00  0.00     0.018 A 
ATOM     17  C   UNL     1      34.161  25.444  27.265  1.00  0.00     0.019 A 
ATOM     18  C   UNL     1      32.958  25.198  25.174  1.00  0.00     0.019 A 
ATOM     19  C   UNL     1      35.345  25.673  26.554  1.00  0.00     0.086 A 
ATOM     20  C   UNL     1      34.137  25.425  24.458  1.00  0.00     0.086 A 
ATOM     21  C   UNL     1      35.330  25.661  25.151  1.00  0.00     0.269 A 
BRANCH  21  22
ATOM     22  N   UNL     1      36.573  25.901  24.408  1.00  0.00     0.062 N 
ATOM     23  O   UNL     1      37.216  26.926  24.674  1.00  0.00    -0.258 OA
ATOM     24  O   UNL     1      36.905  25.062  23.557  1.00  0.00    -0.258 OA
ENDBRANCH  21  22
ENDBRANCH   1  16
TORSDOF 5
ENDMDL
