MODEL 1
REMARK VINA RESULT:    -7.838      0.000      0.000
REMARK INTER + INTRA:         -11.438
REMARK INTER:                 -10.359
REMARK INTRA:                  -1.079
REMARK UNBOUND:                -1.079
REMARK SMILES CC(=O)C[C@H](c1ccc([N+](=O)[O-])cc1)c1c(O)c(=O)oc2ccccc12
REMARK SMILES IDX 5 1 6 2 7 3 8 4 9 5 14 6 13 7 10 8 11 9 12 10 15 11 16 12
REMARK SMILES IDX 26 13 18 14 25 15 21 16 19 17 20 18 24 19 22 20 23 21 17 22
REMARK SMILES IDX 4 24 2 25 3 26 1 27
REMARK H PARENT 17 23
ROOT
ATOM      1  C   UNL     1      31.160  11.478  32.556  1.00  0.00     0.061 C 
ENDROOT
BRANCH   1   2
ATOM      2  C   UNL     1      30.925   9.966  32.676  1.00  0.00    -0.039 A 
ATOM      3  C   UNL     1      30.210   9.288  31.674  1.00  0.00     0.011 A 
ATOM      4  C   UNL     1      29.973   7.914  31.766  1.00  0.00     0.086 A 
ATOM      5  C   UNL     1      30.447   7.206  32.875  1.00  0.00     0.269 A 
ATOM      6  C   UNL     1      31.379   9.239  33.791  1.00  0.00     0.011 A 
ATOM      7  C   UNL     1      31.148   7.865  33.891  1.00  0.00     0.086 A 
BRANCH   5   8
ATOM      8  N   UNL     1      30.202   5.762  32.977  1.00  0.00     0.062 N 
ATOM      9  O   UNL     1      30.615   5.177  33.989  1.00  0.00    -0.258 OA
ATOM     10  O   UNL     1      29.594   5.212  32.048  1.00  0.00    -0.258 OA
ENDBRANCH   5   8
ENDBRANCH   1   2
BRANCH   1  11
ATOM     11  C   UNL     1      30.882  12.210  33.887  1.00  0.00     0.020 A 
ATOM     12  C   UNL     1      29.711  12.155  34.554  1.00  0.00     0.206 A 
ATOM     13  C   UNL     1      31.957  13.050  34.483  1.00  0.00     0.025 A 
ATOM     14  C   UNL     1      29.464  12.894  35.819  1.00  0.00     0.379 A 
ATOM     15  C   UNL     1      33.241  13.196  33.934  1.00  0.00     0.012 A 
ATOM     16  C   UNL     1      31.704  13.748  35.667  1.00  0.00     0.139 A 
ATOM     17  O   UNL     1      28.366  12.776  36.362  1.00  0.00    -0.242 OA
ATOM     18  O   UNL     1      30.467  13.680  36.324  1.00  0.00    -0.420 OA
ATOM     19  C   UNL     1      34.212  14.004  34.543  1.00  0.00     0.001 A 
ATOM     20  C   UNL     1      32.661  14.560  36.286  1.00  0.00     0.048 A 
ATOM     21  C   UNL     1      33.921  14.687  35.718  1.00  0.00     0.004 A 
BRANCH  12  22
ATOM     22  O   UNL     1      28.650  11.373  34.114  1.00  0.00    -0.502 OA
ATOM     23  H   UNL     1      28.431  11.716  33.218  1.00  0.00     0.293 HD
ENDBRANCH  12  22
ENDBRANCH   1  11
BRANCH   1  24
ATOM     24  C   UNL     1      30.426  12.021  31.308  1.00  0.00     0.088 C 
BRANCH  24  25
ATOM     25  C   UNL     1      31.342  12.810  30.386  1.00  0.00     0.130 C 
ATOM     26  O   UNL     1      30.925  13.683  29.623  1.00  0.00    -0.300 OA
ATOM     27  C   UNL     1      32.798  12.424  30.397  1.00  0.00     0.087 C 
ENDBRANCH  24  25
ENDBRANCH   1  24
TORSDOF 6
ENDMDL
MODEL 2
REMARK VINA RESULT:    -7.821      3.108      6.892
REMARK INTER + INTRA:         -11.415
REMARK INTER:                 -10.896
REMARK INTRA:                  -0.519
REMARK UNBOUND:                -1.079
REMARK SMILES CC(=O)C[C@H](c1ccc([N+](=O)[O-])cc1)c1c(O)c(=O)oc2ccccc12
REMARK SMILES IDX 5 1 6 2 7 3 8 4 9 5 14 6 13 7 10 8 11 9 12 10 15 11 16 12
REMARK SMILES IDX 26 13 18 14 25 15 21 16 19 17 20 18 24 19 22 20 23 21 17 22
REMARK SMILES IDX 4 24 2 25 3 26 1 27
REMARK H PARENT 17 23
ROOT
ATOM      1  C   UNL     1      30.864  11.953  33.925  1.00  0.00     0.061 C 
ENDROOT
BRANCH   1   2
ATOM      2  C   UNL     1      32.164  12.761  33.812  1.00  0.00    -0.039 A 
ATOM      3  C   UNL     1      32.767  13.281  34.971  1.00  0.00     0.011 A 
ATOM      4  C   UNL     1      33.944  14.030  34.893  1.00  0.00     0.086 A 
ATOM      5  C   UNL     1      34.525  14.273  33.645  1.00  0.00     0.269 A 
ATOM      6  C   UNL     1      32.754  13.031  32.566  1.00  0.00     0.011 A 
ATOM      7  C   UNL     1      33.932  13.778  32.478  1.00  0.00     0.086 A 
BRANCH   5   8
ATOM      8  N   UNL     1      35.762  15.059  33.556  1.00  0.00     0.062 N 
ATOM      9  O   UNL     1      36.626  14.685  32.751  1.00  0.00    -0.258 OA
ATOM     10  O   UNL     1      35.869  16.052  34.290  1.00  0.00    -0.258 OA
ENDBRANCH   5   8
ENDBRANCH   1   2
BRANCH   1  11
ATOM     11  C   UNL     1      30.652  11.033  32.703  1.00  0.00     0.020 A 
ATOM     12  C   UNL     1      30.265  11.465  31.486  1.00  0.00     0.206 A 
ATOM     13  C   UNL     1      30.866   9.569  32.860  1.00  0.00     0.025 A 
ATOM     14  C   UNL     1      30.041  10.552  30.336  1.00  0.00     0.379 A 
ATOM     15  C   UNL     1      31.293   8.955  34.049  1.00  0.00     0.012 A 
ATOM     16  C   UNL     1      30.639   8.722  31.771  1.00  0.00     0.139 A 
ATOM     17  O   UNL     1      29.697  11.038  29.258  1.00  0.00    -0.242 OA
ATOM     18  O   UNL     1      30.220   9.206  30.523  1.00  0.00    -0.420 OA
ATOM     19  C   UNL     1      31.476   7.568  34.135  1.00  0.00     0.001 A 
ATOM     20  C   UNL     1      30.815   7.336  31.841  1.00  0.00     0.048 A 
ATOM     21  C   UNL     1      31.236   6.758  33.032  1.00  0.00     0.004 A 
BRANCH  12  22
ATOM     22  O   UNL     1      30.073  12.813  31.210  1.00  0.00    -0.502 OA
ATOM     23  H   UNL     1      30.114  12.885  30.230  1.00  0.00     0.293 HD
ENDBRANCH  12  22
ENDBRANCH   1  11
BRANCH   1  24
ATOM     24  C   UNL     1      29.693  12.897  34.286  1.00  0.00     0.088 C 
BRANCH  24  25
ATOM     25  C   UNL     1      28.842  12.365  35.427  1.00  0.00     0.130 C 
ATOM     26  O   UNL     1      27.702  12.776  35.652  1.00  0.00    -0.300 OA
ATOM     27  C   UNL     1      29.487  11.344  36.326  1.00  0.00     0.087 C 
ENDBRANCH  24  25
ENDBRANCH   1  24
TORSDOF 6
ENDMDL
MODEL 3
REMARK VINA RESULT:    -7.811      1.535      3.798
REMARK INTER + INTRA:         -11.401
REMARK INTER:                 -11.274
REMARK INTRA:                  -0.127
REMARK UNBOUND:                -1.079
REMARK SMILES CC(=O)C[C@H](c1ccc([N+](=O)[O-])cc1)c1c(O)c(=O)oc2ccccc12
REMARK SMILES IDX 5 1 6 2 7 3 8 4 9 5 14 6 13 7 10 8 11 9 12 10 15 11 16 12
REMARK SMILES IDX 26 13 18 14 25 15 21 16 19 17 20 18 24 19 22 20 23 21 17 22
REMARK SMILES IDX 4 24 2 25 3 26 1 27
REMARK H PARENT 17 23
ROOT
ATOM      1  C   UNL     1      30.282  11.945  33.905  1.00  0.00     0.061 C 
ENDROOT
BRANCH   1   2
ATOM      2  C   UNL     1      30.252  10.420  34.076  1.00  0.00    -0.039 A 
ATOM      3  C   UNL     1      29.042   9.776  34.395  1.00  0.00     0.011 A 
ATOM      4  C   UNL     1      28.991   8.390  34.566  1.00  0.00     0.086 A 
ATOM      5  C   UNL     1      30.159   7.635  34.428  1.00  0.00     0.269 A 
ATOM      6  C   UNL     1      31.418   9.644  33.957  1.00  0.00     0.011 A 
ATOM      7  C   UNL     1      31.376   8.258  34.125  1.00  0.00     0.086 A 
BRANCH   5   8
ATOM      8  N   UNL     1      30.111   6.178  34.606  1.00  0.00     0.062 N 
ATOM      9  O   UNL     1      30.714   5.476  33.781  1.00  0.00    -0.258 OA
ATOM     10  O   UNL     1      29.473   5.735  35.572  1.00  0.00    -0.258 OA
ENDBRANCH   5   8
ENDBRANCH   1   2
BRANCH   1  11
ATOM     11  C   UNL     1      31.378  12.389  32.912  1.00  0.00     0.020 A 
ATOM     12  C   UNL     1      31.353  12.132  31.589  1.00  0.00     0.206 A 
ATOM     13  C   UNL     1      32.557  13.136  33.429  1.00  0.00     0.025 A 
ATOM     14  C   UNL     1      32.436  12.548  30.661  1.00  0.00     0.379 A 
ATOM     15  C   UNL     1      32.729  13.509  34.772  1.00  0.00     0.012 A 
ATOM     16  C   UNL     1      33.573  13.510  32.546  1.00  0.00     0.139 A 
ATOM     17  O   UNL     1      32.322  12.278  29.466  1.00  0.00    -0.242 OA
ATOM     18  O   UNL     1      33.520  13.210  31.177  1.00  0.00    -0.420 OA
ATOM     19  C   UNL     1      33.864  14.212  35.200  1.00  0.00     0.001 A 
ATOM     20  C   UNL     1      34.713  14.211  32.956  1.00  0.00     0.048 A 
ATOM     21  C   UNL     1      34.857  14.562  34.292  1.00  0.00     0.004 A 
BRANCH  12  22
ATOM     22  O   UNL     1      30.285  11.477  30.986  1.00  0.00    -0.502 OA
ATOM     23  H   UNL     1      29.566  11.483  31.658  1.00  0.00     0.293 HD
ENDBRANCH  12  22
ENDBRANCH   1  11
BRANCH   1  24
ATOM     24  C   UNL     1      30.299  12.624  35.295  1.00  0.00     0.088 C 
BRANCH  24  25
ATOM     25  C   UNL     1      29.114  13.551  35.509  1.00  0.00     0.130 C 
ATOM     26  O   UNL     1      27.948  13.179  35.375  1.00  0.00    -0.300 OA
ATOM     27  C   UNL     1      29.436  14.986  35.832  1.00  0.00     0.087 C 
ENDBRANCH  24  25
ENDBRANCH   1  24
TORSDOF 6
ENDMDL
MODEL 4
REMARK VINA RESULT:    -7.753      3.163      6.770
REMARK INTER + INTRA:         -11.325
REMARK INTER:                 -11.104
REMARK INTRA:                  -0.221
REMARK UNBOUND:                -1.079
REMARK SMILES CC(=O)C[C@H](c1ccc([N+](=O)[O-])cc1)c1c(O)c(=O)oc2ccccc12
REMARK SMILES IDX 5 1 6 2 7 3 8 4 9 5 14 6 13 7 10 8 11 9 12 10 15 11 16 12
REMARK SMILES IDX 26 13 18 14 25 15 21 16 19 17 20 18 24 19 22 20 23 21 17 22
REMARK SMILES IDX 4 24 2 25 3 26 1 27
REMARK H PARENT 17 23
ROOT
ATOM      1  C   UNL     1      30.796  12.126  34.259  1.00  0.00     0.061 C 
ENDROOT
BRANCH   1   2
ATOM      2  C   UNL     1      32.113  12.897  34.095  1.00  0.00    -0.039 A 
ATOM      3  C   UNL     1      32.729  13.477  35.219  1.00  0.00     0.011 A 
ATOM      4  C   UNL     1      33.922  14.194  35.093  1.00  0.00     0.086 A 
ATOM      5  C   UNL     1      34.506  14.344  33.832  1.00  0.00     0.269 A 
ATOM      6  C   UNL     1      32.708  13.073  32.834  1.00  0.00     0.011 A 
ATOM      7  C   UNL     1      33.902  13.787  32.699  1.00  0.00     0.086 A 
BRANCH   5   8
ATOM      8  N   UNL     1      35.760  15.095  33.694  1.00  0.00     0.062 N 
ATOM      9  O   UNL     1      36.615  14.652  32.913  1.00  0.00    -0.258 OA
ATOM     10  O   UNL     1      35.890  16.130  34.364  1.00  0.00    -0.258 OA
ENDBRANCH   5   8
ENDBRANCH   1   2
BRANCH   1  11
ATOM     11  C   UNL     1      30.828  10.773  33.517  1.00  0.00     0.020 A 
ATOM     12  C   UNL     1      31.098   9.590  34.105  1.00  0.00     0.206 A 
ATOM     13  C   UNL     1      30.562  10.751  32.052  1.00  0.00     0.025 A 
ATOM     14  C   UNL     1      31.149   8.307  33.358  1.00  0.00     0.379 A 
ATOM     15  C   UNL     1      30.240  11.886  31.290  1.00  0.00     0.012 A 
ATOM     16  C   UNL     1      30.626   9.537  31.362  1.00  0.00     0.139 A 
ATOM     17  O   UNL     1      31.394   7.274  33.981  1.00  0.00    -0.242 OA
ATOM     18  O   UNL     1      30.927   8.327  32.005  1.00  0.00    -0.420 OA
ATOM     19  C   UNL     1      30.002  11.801  29.911  1.00  0.00     0.001 A 
ATOM     20  C   UNL     1      30.392   9.435  29.986  1.00  0.00     0.048 A 
ATOM     21  C   UNL     1      30.079  10.576  29.259  1.00  0.00     0.004 A 
BRANCH  12  22
ATOM     22  O   UNL     1      31.323   9.482  35.472  1.00  0.00    -0.502 OA
ATOM     23  H   UNL     1      31.701   8.583  35.601  1.00  0.00     0.293 HD
ENDBRANCH  12  22
ENDBRANCH   1  11
BRANCH   1  24
ATOM     24  C   UNL     1      29.604  13.058  33.939  1.00  0.00     0.088 C 
BRANCH  24  25
ATOM     25  C   UNL     1      28.927  13.595  35.190  1.00  0.00     0.130 C 
ATOM     26  O   UNL     1      28.097  12.944  35.827  1.00  0.00    -0.300 OA
ATOM     27  C   UNL     1      29.271  15.006  35.585  1.00  0.00     0.087 C 
ENDBRANCH  24  25
ENDBRANCH   1  24
TORSDOF 6
ENDMDL
MODEL 5
REMARK VINA RESULT:    -7.712      3.201      5.980
REMARK INTER + INTRA:         -11.270
REMARK INTER:                 -11.127
REMARK INTRA:                  -0.143
REMARK UNBOUND:                -1.079
REMARK SMILES CC(=O)C[C@H](c1ccc([N+](=O)[O-])cc1)c1c(O)c(=O)oc2ccccc12
REMARK SMILES IDX 5 1 6 2 7 3 8 4 9 5 14 6 13 7 10 8 11 9 12 10 15 11 16 12
REMARK SMILES IDX 26 13 18 14 25 15 21 16 19 17 20 18 24 19 22 20 23 21 17 22
REMARK SMILES IDX 4 24 2 25 3 26 1 27
REMARK H PARENT 17 23
ROOT
ATOM      1  C   UNL     1      31.273  11.955  31.484  1.00  0.00     0.061 C 
ENDROOT
BRANCH   1   2
ATOM      2  C   UNL     1      32.503  12.784  31.880  1.00  0.00    -0.039 A 
ATOM      3  C   UNL     1      33.405  13.213  30.889  1.00  0.00     0.011 A 
ATOM      4  C   UNL     1      34.538  13.959  31.225  1.00  0.00     0.086 A 
ATOM      5  C   UNL     1      34.783  14.274  32.565  1.00  0.00     0.269 A 
ATOM      6  C   UNL     1      32.776  13.097  33.222  1.00  0.00     0.011 A 
ATOM      7  C   UNL     1      33.906  13.843  33.568  1.00  0.00     0.086 A 
BRANCH   5   8
ATOM      8  N   UNL     1      35.971  15.058  32.925  1.00  0.00     0.062 N 
ATOM      9  O   UNL     1      35.899  15.791  33.921  1.00  0.00    -0.258 OA
ATOM     10  O   UNL     1      36.979  14.939  32.212  1.00  0.00    -0.258 OA
ENDBRANCH   5   8
ENDBRANCH   1   2
BRANCH   1  11
ATOM     11  C   UNL     1      30.631  11.263  32.706  1.00  0.00     0.020 A 
ATOM     12  C   UNL     1      29.798  11.873  33.574  1.00  0.00     0.206 A 
ATOM     13  C   UNL     1      30.952   9.834  32.973  1.00  0.00     0.025 A 
ATOM     14  C   UNL     1      29.218  11.188  34.757  1.00  0.00     0.379 A 
ATOM     15  C   UNL     1      31.778   9.044  32.157  1.00  0.00     0.012 A 
ATOM     16  C   UNL     1      30.407   9.207  34.098  1.00  0.00     0.139 A 
ATOM     17  O   UNL     1      28.459  11.822  35.490  1.00  0.00    -0.242 OA
ATOM     18  O   UNL     1      29.557   9.880  34.988  1.00  0.00    -0.420 OA
ATOM     19  C   UNL     1      32.044   7.702  32.463  1.00  0.00     0.001 A 
ATOM     20  C   UNL     1      30.663   7.870  34.417  1.00  0.00     0.048 A 
ATOM     21  C   UNL     1      31.487   7.115  33.593  1.00  0.00     0.004 A 
BRANCH  12  22
ATOM     22  O   UNL     1      29.397  13.192  33.405  1.00  0.00    -0.502 OA
ATOM     23  H   UNL     1      28.797  13.379  34.163  1.00  0.00     0.293 HD
ENDBRANCH  12  22
ENDBRANCH   1  11
BRANCH   1  24
ATOM     24  C   UNL     1      31.623  11.044  30.284  1.00  0.00     0.088 C 
BRANCH  24  25
ATOM     25  C   UNL     1      30.420  10.747  29.403  1.00  0.00     0.130 C 
ATOM     26  O   UNL     1      29.394  11.429  29.429  1.00  0.00    -0.300 OA
ATOM     27  C   UNL     1      30.513   9.523  28.532  1.00  0.00     0.087 C 
ENDBRANCH  24  25
ENDBRANCH   1  24
TORSDOF 6
ENDMDL
MODEL 6
REMARK VINA RESULT:    -7.607      1.816      4.539
REMARK INTER + INTRA:         -11.132
REMARK INTER:                 -11.306
REMARK INTRA:                   0.174
REMARK UNBOUND:                -1.079
REMARK SMILES CC(=O)C[C@H](c1ccc([N+](=O)[O-])cc1)c1c(O)c(=O)oc2ccccc12
REMARK SMILES IDX 5 1 6 2 7 3 8 4 9 5 14 6 13 7 10 8 11 9 12 10 15 11 16 12
REMARK SMILES IDX 26 13 18 14 25 15 21 16 19 17 20 18 24 19 22 20 23 21 17 22
REMARK SMILES IDX 4 24 2 25 3 26 1 27
REMARK H PARENT 17 23
ROOT
ATOM      1  C   UNL     1      31.008  11.995  31.855  1.00  0.00     0.061 C 
ENDROOT
BRANCH   1   2
ATOM      2  C   UNL     1      30.690  10.494  31.825  1.00  0.00    -0.039 A 
ATOM      3  C   UNL     1      29.365  10.063  31.637  1.00  0.00     0.011 A 
ATOM      4  C   UNL     1      29.048   8.702  31.618  1.00  0.00     0.086 A 
ATOM      5  C   UNL     1      30.062   7.756  31.798  1.00  0.00     0.269 A 
ATOM      6  C   UNL     1      31.692   9.527  32.020  1.00  0.00     0.011 A 
ATOM      7  C   UNL     1      31.385   8.164  32.001  1.00  0.00     0.086 A 
BRANCH   5   8
ATOM      8  N   UNL     1      29.736   6.325  31.778  1.00  0.00     0.062 N 
ATOM      9  O   UNL     1      28.663   5.985  31.260  1.00  0.00    -0.258 OA
ATOM     10  O   UNL     1      30.554   5.539  32.278  1.00  0.00    -0.258 OA
ENDBRANCH   5   8
ENDBRANCH   1   2
BRANCH   1  11
ATOM     11  C   UNL     1      31.971  12.400  30.718  1.00  0.00     0.020 A 
ATOM     12  C   UNL     1      31.782  12.097  29.418  1.00  0.00     0.206 A 
ATOM     13  C   UNL     1      33.205  13.159  31.058  1.00  0.00     0.025 A 
ATOM     14  C   UNL     1      32.741  12.476  28.349  1.00  0.00     0.379 A 
ATOM     15  C   UNL     1      33.544  13.577  32.356  1.00  0.00     0.012 A 
ATOM     16  C   UNL     1      34.104  13.498  30.043  1.00  0.00     0.139 A 
ATOM     17  O   UNL     1      32.480  12.165  27.187  1.00  0.00    -0.242 OA
ATOM     18  O   UNL     1      33.881  13.151  28.702  1.00  0.00    -0.420 OA
ATOM     19  C   UNL     1      34.723  14.290  32.613  1.00  0.00     0.001 A 
ATOM     20  C   UNL     1      35.286  14.207  30.283  1.00  0.00     0.048 A 
ATOM     21  C   UNL     1      35.595  14.604  31.577  1.00  0.00     0.004 A 
BRANCH  12  22
ATOM     22  O   UNL     1      30.648  11.426  28.976  1.00  0.00    -0.502 OA
ATOM     23  H   UNL     1      30.373  10.859  29.732  1.00  0.00     0.293 HD
ENDBRANCH  12  22
ENDBRANCH   1  11
BRANCH   1  24
ATOM     24  C   UNL     1      31.421  12.412  33.286  1.00  0.00     0.088 C 
BRANCH  24  25
ATOM     25  C   UNL     1      30.241  12.481  34.240  1.00  0.00     0.130 C 
ATOM     26  O   UNL     1      29.324  13.293  34.103  1.00  0.00    -0.300 OA
ATOM     27  C   UNL     1      30.275  11.545  35.419  1.00  0.00     0.087 C 
ENDBRANCH  24  25
ENDBRANCH   1  24
TORSDOF 6
ENDMDL
MODEL 7
REMARK VINA RESULT:    -7.432      2.173      4.871
REMARK INTER + INTRA:         -10.900
REMARK INTER:                 -11.236
REMARK INTRA:                   0.336
REMARK UNBOUND:                -1.079
REMARK SMILES CC(=O)C[C@H](c1ccc([N+](=O)[O-])cc1)c1c(O)c(=O)oc2ccccc12
REMARK SMILES IDX 5 1 6 2 7 3 8 4 9 5 14 6 13 7 10 8 11 9 12 10 15 11 16 12
REMARK SMILES IDX 26 13 18 14 25 15 21 16 19 17 20 18 24 19 22 20 23 21 17 22
REMARK SMILES IDX 4 24 2 25 3 26 1 27
REMARK H PARENT 17 23
ROOT
ATOM      1  C   UNL     1      30.400  11.077  32.427  1.00  0.00     0.061 C 
ENDROOT
BRANCH   1   2
ATOM      2  C   UNL     1      30.294   9.725  33.146  1.00  0.00    -0.039 A 
ATOM      3  C   UNL     1      29.089   9.358  33.770  1.00  0.00     0.011 A 
ATOM      4  C   UNL     1      28.971   8.138  34.442  1.00  0.00     0.086 A 
ATOM      5  C   UNL     1      30.069   7.275  34.500  1.00  0.00     0.269 A 
ATOM      6  C   UNL     1      31.391   8.850  33.230  1.00  0.00     0.011 A 
ATOM      7  C   UNL     1      31.283   7.627  33.897  1.00  0.00     0.086 A 
BRANCH   5   8
ATOM      8  N   UNL     1      29.952   5.991  35.202  1.00  0.00     0.062 N 
ATOM      9  O   UNL     1      28.949   5.808  35.906  1.00  0.00    -0.258 OA
ATOM     10  O   UNL     1      30.862   5.163  35.048  1.00  0.00    -0.258 OA
ENDBRANCH   5   8
ENDBRANCH   1   2
BRANCH   1  11
ATOM     11  C   UNL     1      30.758  10.906  30.934  1.00  0.00     0.020 A 
ATOM     12  C   UNL     1      30.172  10.015  30.109  1.00  0.00     0.206 A 
ATOM     13  C   UNL     1      31.830  11.758  30.351  1.00  0.00     0.025 A 
ATOM     14  C   UNL     1      30.557   9.854  28.684  1.00  0.00     0.379 A 
ATOM     15  C   UNL     1      32.524  12.752  31.060  1.00  0.00     0.012 A 
ATOM     16  C   UNL     1      32.189  11.586  29.011  1.00  0.00     0.139 A 
ATOM     17  O   UNL     1      29.959   9.021  28.004  1.00  0.00    -0.242 OA
ATOM     18  O   UNL     1      31.568  10.637  28.187  1.00  0.00    -0.420 OA
ATOM     19  C   UNL     1      33.526  13.523  30.454  1.00  0.00     0.001 A 
ATOM     20  C   UNL     1      33.188  12.346  28.391  1.00  0.00     0.048 A 
ATOM     21  C   UNL     1      33.859  13.319  29.120  1.00  0.00     0.004 A 
BRANCH  12  22
ATOM     22  O   UNL     1      29.134   9.194  30.532  1.00  0.00    -0.502 OA
ATOM     23  H   UNL     1      29.572   8.405  30.924  1.00  0.00     0.293 HD
ENDBRANCH  12  22
ENDBRANCH   1  11
BRANCH   1  24
ATOM     24  C   UNL     1      31.301  12.032  33.244  1.00  0.00     0.088 C 
BRANCH  24  25
ATOM     25  C   UNL     1      30.691  12.412  34.583  1.00  0.00     0.130 C 
ATOM     26  O   UNL     1      31.244  12.168  35.657  1.00  0.00    -0.300 OA
ATOM     27  C   UNL     1      29.327  13.049  34.542  1.00  0.00     0.087 C 
ENDBRANCH  24  25
ENDBRANCH   1  24
TORSDOF 6
ENDMDL
MODEL 8
REMARK VINA RESULT:    -7.429     16.364     18.332
REMARK INTER + INTRA:         -10.896
REMARK INTER:                  -9.794
REMARK INTRA:                  -1.103
REMARK UNBOUND:                -1.079
REMARK SMILES CC(=O)C[C@H](c1ccc([N+](=O)[O-])cc1)c1c(O)c(=O)oc2ccccc12
REMARK SMILES IDX 5 1 6 2 7 3 8 4 9 5 14 6 13 7 10 8 11 9 12 10 15 11 16 12
REMARK SMILES IDX 26 13 18 14 25 15 21 16 19 17 20 18 24 19 22 20 23 21 17 22
REMARK SMILES IDX 4 24 2 25 3 26 1 27
REMARK H PARENT 17 23
ROOT
ATOM      1  C   UNL     1      32.244  10.797  14.394  1.00  0.00     0.061 C 
ENDROOT
BRANCH   1   2
ATOM      2  C   UNL     1      33.238   9.732  14.876  1.00  0.00    -0.039 A 
ATOM      3  C   UNL     1      34.518  10.117  15.313  1.00  0.00     0.011 A 
ATOM      4  C   UNL     1      35.446   9.165  15.745  1.00  0.00     0.086 A 
ATOM      5  C   UNL     1      35.098   7.811  15.735  1.00  0.00     0.269 A 
ATOM      6  C   UNL     1      32.915   8.364  14.858  1.00  0.00     0.011 A 
ATOM      7  C   UNL     1      33.835   7.405  15.290  1.00  0.00     0.086 A 
BRANCH   5   8
ATOM      8  N   UNL     1      36.068   6.806  16.189  1.00  0.00     0.062 N 
ATOM      9  O   UNL     1      37.188   7.202  16.539  1.00  0.00    -0.258 OA
ATOM     10  O   UNL     1      35.708   5.619  16.198  1.00  0.00    -0.258 OA
ENDBRANCH   5   8
ENDBRANCH   1   2
BRANCH   1  11
ATOM     11  C   UNL     1      31.810  11.737  15.540  1.00  0.00     0.020 A 
ATOM     12  C   UNL     1      30.843  11.448  16.434  1.00  0.00     0.206 A 
ATOM     13  C   UNL     1      32.476  13.061  15.674  1.00  0.00     0.025 A 
ATOM     14  C   UNL     1      30.427  12.385  17.509  1.00  0.00     0.379 A 
ATOM     15  C   UNL     1      33.517  13.510  14.845  1.00  0.00     0.012 A 
ATOM     16  C   UNL     1      32.065  13.937  16.683  1.00  0.00     0.139 A 
ATOM     17  O   UNL     1      29.542  12.032  18.287  1.00  0.00    -0.242 OA
ATOM     18  O   UNL     1      31.043  13.608  17.586  1.00  0.00    -0.420 OA
ATOM     19  C   UNL     1      34.104  14.770  15.020  1.00  0.00     0.001 A 
ATOM     20  C   UNL     1      32.639  15.199  16.871  1.00  0.00     0.048 A 
ATOM     21  C   UNL     1      33.665  15.616  16.033  1.00  0.00     0.004 A 
BRANCH  12  22
ATOM     22  O   UNL     1      30.179  10.228  16.432  1.00  0.00    -0.502 OA
ATOM     23  H   UNL     1      30.304   9.868  15.525  1.00  0.00     0.293 HD
ENDBRANCH  12  22
ENDBRANCH   1  11
BRANCH   1  24
ATOM     24  C   UNL     1      31.107  10.123  13.591  1.00  0.00     0.088 C 
BRANCH  24  25
ATOM     25  C   UNL     1      30.462  11.063  12.585  1.00  0.00     0.130 C 
ATOM     26  O   UNL     1      29.282  10.962  12.246  1.00  0.00    -0.300 OA
ATOM     27  C   UNL     1      31.361  12.097  11.962  1.00  0.00     0.087 C 
ENDBRANCH  24  25
ENDBRANCH   1  24
TORSDOF 6
ENDMDL
MODEL 9
REMARK VINA RESULT:    -7.417      1.811      4.432
REMARK INTER + INTRA:         -10.881
REMARK INTER:                 -10.383
REMARK INTRA:                  -0.498
REMARK UNBOUND:                -1.079
REMARK SMILES CC(=O)C[C@H](c1ccc([N+](=O)[O-])cc1)c1c(O)c(=O)oc2ccccc12
REMARK SMILES IDX 5 1 6 2 7 3 8 4 9 5 14 6 13 7 10 8 11 9 12 10 15 11 16 12
REMARK SMILES IDX 26 13 18 14 25 15 21 16 19 17 20 18 24 19 22 20 23 21 17 22
REMARK SMILES IDX 4 24 2 25 3 26 1 27
REMARK H PARENT 17 23
ROOT
ATOM      1  C   UNL     1      30.131  11.881  34.142  1.00  0.00     0.061 C 
ENDROOT
BRANCH   1   2
ATOM      2  C   UNL     1      30.151  10.352  34.271  1.00  0.00    -0.039 A 
ATOM      3  C   UNL     1      28.996   9.671  34.694  1.00  0.00     0.011 A 
ATOM      4  C   UNL     1      28.992   8.280  34.830  1.00  0.00     0.086 A 
ATOM      5  C   UNL     1      30.156   7.557  34.551  1.00  0.00     0.269 A 
ATOM      6  C   UNL     1      31.316   9.609  34.012  1.00  0.00     0.011 A 
ATOM      7  C   UNL     1      31.321   8.218  34.144  1.00  0.00     0.086 A 
BRANCH   5   8
ATOM      8  N   UNL     1      30.159   6.096  34.692  1.00  0.00     0.062 N 
ATOM      9  O   UNL     1      30.886   5.444  33.929  1.00  0.00    -0.258 OA
ATOM     10  O   UNL     1      29.436   5.599  35.568  1.00  0.00    -0.258 OA
ENDBRANCH   5   8
ENDBRANCH   1   2
BRANCH   1  11
ATOM     11  C   UNL     1      31.340  12.405  33.336  1.00  0.00     0.020 A 
ATOM     12  C   UNL     1      32.420  12.996  33.884  1.00  0.00     0.206 A 
ATOM     13  C   UNL     1      31.323  12.275  31.853  1.00  0.00     0.025 A 
ATOM     14  C   UNL     1      33.555  13.516  33.079  1.00  0.00     0.379 A 
ATOM     15  C   UNL     1      30.290  11.664  31.124  1.00  0.00     0.012 A 
ATOM     16  C   UNL     1      32.394  12.780  31.109  1.00  0.00     0.139 A 
ATOM     17  O   UNL     1      34.505  14.032  33.667  1.00  0.00    -0.242 OA
ATOM     18  O   UNL     1      33.495  13.405  31.714  1.00  0.00    -0.420 OA
ATOM     19  C   UNL     1      30.333  11.574  29.725  1.00  0.00     0.001 A 
ATOM     20  C   UNL     1      32.451  12.700  29.713  1.00  0.00     0.048 A 
ATOM     21  C   UNL     1      31.412  12.093  29.020  1.00  0.00     0.004 A 
BRANCH  12  22
ATOM     22  O   UNL     1      32.564  13.137  35.259  1.00  0.00    -0.502 OA
ATOM     23  H   UNL     1      32.146  12.334  35.645  1.00  0.00     0.293 HD
ENDBRANCH  12  22
ENDBRANCH   1  11
BRANCH   1  24
ATOM     24  C   UNL     1      29.906  12.519  35.533  1.00  0.00     0.088 C 
BRANCH  24  25
ATOM     25  C   UNL     1      29.099  13.805  35.465  1.00  0.00     0.130 C 
ATOM     26  O   UNL     1      28.022  13.882  34.872  1.00  0.00    -0.300 OA
ATOM     27  C   UNL     1      29.717  15.018  36.108  1.00  0.00     0.087 C 
ENDBRANCH  24  25
ENDBRANCH   1  24
TORSDOF 6
ENDMDL
MODEL 10
REMARK VINA RESULT:    -7.360      9.532     12.294
REMARK INTER + INTRA:         -10.805
REMARK INTER:                  -9.777
REMARK INTRA:                  -1.028
REMARK UNBOUND:                -1.079
REMARK SMILES CC(=O)C[C@H](c1ccc([N+](=O)[O-])cc1)c1c(O)c(=O)oc2ccccc12
REMARK SMILES IDX 5 1 6 2 7 3 8 4 9 5 14 6 13 7 10 8 11 9 12 10 15 11 16 12
REMARK SMILES IDX 26 13 18 14 25 15 21 16 19 17 20 18 24 19 22 20 23 21 17 22
REMARK SMILES IDX 4 24 2 25 3 26 1 27
REMARK H PARENT 17 23
ROOT
ATOM      1  C   UNL     1      23.662   5.586  26.017  1.00  0.00     0.061 C 
ENDROOT
BRANCH   1   2
ATOM      2  C   UNL     1      23.183   7.013  25.715  1.00  0.00    -0.039 A 
ATOM      3  C   UNL     1      22.679   7.815  26.754  1.00  0.00     0.011 A 
ATOM      4  C   UNL     1      22.225   9.113  26.502  1.00  0.00     0.086 A 
ATOM      5  C   UNL     1      22.264   9.616  25.198  1.00  0.00     0.269 A 
ATOM      6  C   UNL     1      23.199   7.531  24.409  1.00  0.00     0.011 A 
ATOM      7  C   UNL     1      22.748   8.828  24.147  1.00  0.00     0.086 A 
BRANCH   5   8
ATOM      8  N   UNL     1      21.790  10.979  24.927  1.00  0.00     0.062 N 
ATOM      9  O   UNL     1      21.343  11.220  23.797  1.00  0.00    -0.258 OA
ATOM     10  O   UNL     1      21.861  11.808  25.845  1.00  0.00    -0.258 OA
ENDBRANCH   5   8
ENDBRANCH   1   2
BRANCH   1  11
ATOM     11  C   UNL     1      24.858   5.578  26.995  1.00  0.00     0.020 A 
ATOM     12  C   UNL     1      26.138   5.797  26.632  1.00  0.00     0.206 A 
ATOM     13  C   UNL     1      24.606   5.295  28.434  1.00  0.00     0.025 A 
ATOM     14  C   UNL     1      27.271   5.755  27.591  1.00  0.00     0.379 A 
ATOM     15  C   UNL     1      23.334   5.070  28.985  1.00  0.00     0.012 A 
ATOM     16  C   UNL     1      25.685   5.246  29.322  1.00  0.00     0.139 A 
ATOM     17  O   UNL     1      28.406   5.977  27.170  1.00  0.00    -0.242 OA
ATOM     18  O   UNL     1      27.007   5.463  28.904  1.00  0.00    -0.420 OA
ATOM     19  C   UNL     1      23.162   4.807  30.351  1.00  0.00     0.001 A 
ATOM     20  C   UNL     1      25.530   4.983  30.688  1.00  0.00     0.048 A 
ATOM     21  C   UNL     1      24.260   4.762  31.202  1.00  0.00     0.004 A 
BRANCH  12  22
ATOM     22  O   UNL     1      26.488   6.110  25.324  1.00  0.00    -0.502 OA
ATOM     23  H   UNL     1      27.113   6.867  25.398  1.00  0.00     0.293 HD
ENDBRANCH  12  22
ENDBRANCH   1  11
BRANCH   1  24
ATOM     24  C   UNL     1      23.852   4.809  24.694  1.00  0.00     0.088 C 
BRANCH  24  25
ATOM     25  C   UNL     1      24.466   3.435  24.904  1.00  0.00     0.130 C 
ATOM     26  O   UNL     1      25.617   3.162  24.558  1.00  0.00    -0.300 OA
ATOM     27  C   UNL     1      23.569   2.384  25.501  1.00  0.00     0.087 C 
ENDBRANCH  24  25
ENDBRANCH   1  24
TORSDOF 6
ENDMDL
MODEL 11
REMARK VINA RESULT:    -7.330     16.442     19.836
REMARK INTER + INTRA:         -10.766
REMARK INTER:                  -9.584
REMARK INTRA:                  -1.182
REMARK UNBOUND:                -1.079
REMARK SMILES CC(=O)C[C@H](c1ccc([N+](=O)[O-])cc1)c1c(O)c(=O)oc2ccccc12
REMARK SMILES IDX 5 1 6 2 7 3 8 4 9 5 14 6 13 7 10 8 11 9 12 10 15 11 16 12
REMARK SMILES IDX 26 13 18 14 25 15 21 16 19 17 20 18 24 19 22 20 23 21 17 22
REMARK SMILES IDX 4 24 2 25 3 26 1 27
REMARK H PARENT 17 23
ROOT
ATOM      1  C   UNL     1      31.480  11.116  15.482  1.00  0.00     0.061 C 
ENDROOT
BRANCH   1   2
ATOM      2  C   UNL     1      32.450   9.957  15.215  1.00  0.00    -0.039 A 
ATOM      3  C   UNL     1      31.974   8.766  14.639  1.00  0.00     0.011 A 
ATOM      4  C   UNL     1      32.835   7.692  14.396  1.00  0.00     0.086 A 
ATOM      5  C   UNL     1      34.186   7.801  14.739  1.00  0.00     0.269 A 
ATOM      6  C   UNL     1      33.808  10.040  15.567  1.00  0.00     0.011 A 
ATOM      7  C   UNL     1      34.677   8.972  15.327  1.00  0.00     0.086 A 
BRANCH   5   8
ATOM      8  N   UNL     1      35.096   6.677  14.486  1.00  0.00     0.062 N 
ATOM      9  O   UNL     1      35.375   6.415  13.307  1.00  0.00    -0.258 OA
ATOM     10  O   UNL     1      35.534   6.057  15.466  1.00  0.00    -0.258 OA
ENDBRANCH   5   8
ENDBRANCH   1   2
BRANCH   1  11
ATOM     11  C   UNL     1      30.951  11.736  14.171  1.00  0.00     0.020 A 
ATOM     12  C   UNL     1      31.647  12.599  13.404  1.00  0.00     0.206 A 
ATOM     13  C   UNL     1      29.579  11.385  13.713  1.00  0.00     0.025 A 
ATOM     14  C   UNL     1      31.100  13.202  12.161  1.00  0.00     0.379 A 
ATOM     15  C   UNL     1      28.730  10.485  14.377  1.00  0.00     0.012 A 
ATOM     16  C   UNL     1      29.074  11.970  12.548  1.00  0.00     0.139 A 
ATOM     17  O   UNL     1      31.812  13.974  11.519  1.00  0.00    -0.242 OA
ATOM     18  O   UNL     1      29.822  12.878  11.784  1.00  0.00    -0.420 OA
ATOM     19  C   UNL     1      27.445  10.196  13.896  1.00  0.00     0.001 A 
ATOM     20  C   UNL     1      27.794  11.694  12.056  1.00  0.00     0.048 A 
ATOM     21  C   UNL     1      26.977  10.801  12.736  1.00  0.00     0.004 A 
BRANCH  12  22
ATOM     22  O   UNL     1      32.951  12.970  13.710  1.00  0.00    -0.502 OA
ATOM     23  H   UNL     1      33.508  12.208  13.430  1.00  0.00     0.293 HD
ENDBRANCH  12  22
ENDBRANCH   1  11
BRANCH   1  24
ATOM     24  C   UNL     1      32.108  12.096  16.501  1.00  0.00     0.088 C 
BRANCH  24  25
ATOM     25  C   UNL     1      31.088  12.663  17.475  1.00  0.00     0.130 C 
ATOM     26  O   UNL     1      31.282  13.701  18.110  1.00  0.00    -0.300 OA
ATOM     27  C   UNL     1      29.838  11.850  17.684  1.00  0.00     0.087 C 
ENDBRANCH  24  25
ENDBRANCH   1  24
TORSDOF 6
ENDMDL
MODEL 12
REMARK VINA RESULT:    -7.284     17.637     19.371
REMARK INTER + INTRA:         -10.704
REMARK INTER:                  -9.694
REMARK INTRA:                  -1.010
REMARK UNBOUND:                -1.079
REMARK SMILES CC(=O)C[C@H](c1ccc([N+](=O)[O-])cc1)c1c(O)c(=O)oc2ccccc12
REMARK SMILES IDX 5 1 6 2 7 3 8 4 9 5 14 6 13 7 10 8 11 9 12 10 15 11 16 12
REMARK SMILES IDX 26 13 18 14 25 15 21 16 19 17 20 18 24 19 22 20 23 21 17 22
REMARK SMILES IDX 4 24 2 25 3 26 1 27
REMARK H PARENT 17 23
ROOT
ATOM      1  C   UNL     1      33.354  11.993  15.913  1.00  0.00     0.061 C 
ENDROOT
BRANCH   1   2
ATOM      2  C   UNL     1      33.862  10.563  15.685  1.00  0.00    -0.039 A 
ATOM      3  C   UNL     1      35.211  10.252  15.933  1.00  0.00     0.011 A 
ATOM      4  C   UNL     1      35.700   8.960  15.722  1.00  0.00     0.086 A 
ATOM      5  C   UNL     1      34.838   7.966  15.249  1.00  0.00     0.269 A 
ATOM      6  C   UNL     1      33.016   9.553  15.194  1.00  0.00     0.011 A 
ATOM      7  C   UNL     1      33.496   8.258  14.981  1.00  0.00     0.086 A 
BRANCH   5   8
ATOM      8  N   UNL     1      35.345   6.606  15.026  1.00  0.00     0.062 N 
ATOM      9  O   UNL     1      35.421   6.203  13.857  1.00  0.00    -0.258 OA
ATOM     10  O   UNL     1      35.672   5.941  16.021  1.00  0.00    -0.258 OA
ENDBRANCH   5   8
ENDBRANCH   1   2
BRANCH   1  11
ATOM     11  C   UNL     1      32.621  12.547  14.671  1.00  0.00     0.020 A 
ATOM     12  C   UNL     1      33.204  12.750  13.473  1.00  0.00     0.206 A 
ATOM     13  C   UNL     1      31.181  12.903  14.788  1.00  0.00     0.025 A 
ATOM     14  C   UNL     1      32.480  13.311  12.304  1.00  0.00     0.379 A 
ATOM     15  C   UNL     1      30.415  12.731  15.952  1.00  0.00     0.012 A 
ATOM     16  C   UNL     1      30.516  13.441  13.682  1.00  0.00     0.139 A 
ATOM     17  O   UNL     1      33.092  13.453  11.245  1.00  0.00    -0.242 OA
ATOM     18  O   UNL     1      31.161  13.654  12.454  1.00  0.00    -0.420 OA
ATOM     19  C   UNL     1      29.060  13.087  16.000  1.00  0.00     0.001 A 
ATOM     20  C   UNL     1      29.165  13.803  13.713  1.00  0.00     0.048 A 
ATOM     21  C   UNL     1      28.435  13.624  14.881  1.00  0.00     0.004 A 
BRANCH  12  22
ATOM     22  O   UNL     1      34.533  12.419  13.235  1.00  0.00    -0.502 OA
ATOM     23  H   UNL     1      35.058  13.125  13.676  1.00  0.00     0.293 HD
ENDBRANCH  12  22
ENDBRANCH   1  11
BRANCH   1  24
ATOM     24  C   UNL     1      34.497  12.867  16.482  1.00  0.00     0.088 C 
BRANCH  24  25
ATOM     25  C   UNL     1      34.243  14.355  16.301  1.00  0.00     0.130 C 
ATOM     26  O   UNL     1      34.946  15.065  15.581  1.00  0.00    -0.300 OA
ATOM     27  C   UNL     1      33.117  14.945  17.108  1.00  0.00     0.087 C 
ENDBRANCH  24  25
ENDBRANCH   1  24
TORSDOF 6
ENDMDL
MODEL 13
REMARK VINA RESULT:    -7.161     15.723     18.571
REMARK INTER + INTRA:         -10.542
REMARK INTER:                  -9.447
REMARK INTRA:                  -1.095
REMARK UNBOUND:                -1.079
REMARK SMILES CC(=O)C[C@H](c1ccc([N+](=O)[O-])cc1)c1c(O)c(=O)oc2ccccc12
REMARK SMILES IDX 5 1 6 2 7 3 8 4 9 5 14 6 13 7 10 8 11 9 12 10 15 11 16 12
REMARK SMILES IDX 26 13 18 14 25 15 21 16 19 17 20 18 24 19 22 20 23 21 17 22
REMARK SMILES IDX 4 24 2 25 3 26 1 27
REMARK H PARENT 17 23
ROOT
ATOM      1  C   UNL     1      31.448  12.565  14.964  1.00  0.00     0.061 C 
ENDROOT
BRANCH   1   2
ATOM      2  C   UNL     1      30.603  13.206  16.073  1.00  0.00    -0.039 A 
ATOM      3  C   UNL     1      30.155  12.423  17.152  1.00  0.00     0.011 A 
ATOM      4  C   UNL     1      29.374  12.980  18.168  1.00  0.00     0.086 A 
ATOM      5  C   UNL     1      29.026  14.333  18.106  1.00  0.00     0.269 A 
ATOM      6  C   UNL     1      30.229  14.560  16.021  1.00  0.00     0.011 A 
ATOM      7  C   UNL     1      29.449  15.126  17.033  1.00  0.00     0.086 A 
BRANCH   5   8
ATOM      8  N   UNL     1      28.207  14.925  19.171  1.00  0.00     0.062 N 
ATOM      9  O   UNL     1      26.981  14.966  19.000  1.00  0.00    -0.258 OA
ATOM     10  O   UNL     1      28.790  15.347  20.181  1.00  0.00    -0.258 OA
ENDBRANCH   5   8
ENDBRANCH   1   2
BRANCH   1  11
ATOM     11  C   UNL     1      32.768  11.982  15.513  1.00  0.00     0.020 A 
ATOM     12  C   UNL     1      33.705  12.702  16.163  1.00  0.00     0.206 A 
ATOM     13  C   UNL     1      33.055  10.536  15.307  1.00  0.00     0.025 A 
ATOM     14  C   UNL     1      34.979  12.119  16.655  1.00  0.00     0.379 A 
ATOM     15  C   UNL     1      32.180   9.639  14.675  1.00  0.00     0.012 A 
ATOM     16  C   UNL     1      34.265  10.005  15.766  1.00  0.00     0.139 A 
ATOM     17  O   UNL     1      35.771  12.852  17.247  1.00  0.00    -0.242 OA
ATOM     18  O   UNL     1      35.223  10.790  16.424  1.00  0.00    -0.420 OA
ATOM     19  C   UNL     1      32.508   8.286  14.510  1.00  0.00     0.001 A 
ATOM     20  C   UNL     1      34.608   8.658  15.608  1.00  0.00     0.048 A 
ATOM     21  C   UNL     1      33.723   7.795  14.975  1.00  0.00     0.004 A 
BRANCH  12  22
ATOM     22  O   UNL     1      33.529  14.051  16.447  1.00  0.00    -0.502 OA
ATOM     23  H   UNL     1      34.000  14.530  15.728  1.00  0.00     0.293 HD
ENDBRANCH  12  22
ENDBRANCH   1  11
BRANCH   1  24
ATOM     24  C   UNL     1      31.573  13.543  13.773  1.00  0.00     0.088 C 
BRANCH  24  25
ATOM     25  C   UNL     1      32.098  12.872  12.515  1.00  0.00     0.130 C 
ATOM     26  O   UNL     1      31.436  12.056  11.872  1.00  0.00    -0.300 OA
ATOM     27  C   UNL     1      33.513  13.202  12.120  1.00  0.00     0.087 C 
ENDBRANCH  24  25
ENDBRANCH   1  24
TORSDOF 6
ENDMDL
MODEL 14
REMARK VINA RESULT:    -7.126      2.731      5.379
REMARK INTER + INTRA:         -10.496
REMARK INTER:                 -10.357
REMARK INTRA:                  -0.139
REMARK UNBOUND:                -1.079
REMARK SMILES CC(=O)C[C@H](c1ccc([N+](=O)[O-])cc1)c1c(O)c(=O)oc2ccccc12
REMARK SMILES IDX 5 1 6 2 7 3 8 4 9 5 14 6 13 7 10 8 11 9 12 10 15 11 16 12
REMARK SMILES IDX 26 13 18 14 25 15 21 16 19 17 20 18 24 19 22 20 23 21 17 22
REMARK SMILES IDX 4 24 2 25 3 26 1 27
REMARK H PARENT 17 23
ROOT
ATOM      1  C   UNL     1      32.016  12.042  33.703  1.00  0.00     0.061 C 
ENDROOT
BRANCH   1   2
ATOM      2  C   UNL     1      32.033  11.966  32.171  1.00  0.00    -0.039 A 
ATOM      3  C   UNL     1      32.811  12.877  31.434  1.00  0.00     0.011 A 
ATOM      4  C   UNL     1      32.835  12.836  30.038  1.00  0.00     0.086 A 
ATOM      5  C   UNL     1      32.067  11.881  29.364  1.00  0.00     0.269 A 
ATOM      6  C   UNL     1      31.257  11.024  31.474  1.00  0.00     0.011 A 
ATOM      7  C   UNL     1      31.275  10.974  30.077  1.00  0.00     0.086 A 
BRANCH   5   8
ATOM      8  N   UNL     1      32.088  11.831  27.896  1.00  0.00     0.062 N 
ATOM      9  O   UNL     1      31.750  10.772  27.350  1.00  0.00    -0.258 OA
ATOM     10  O   UNL     1      32.441  12.853  27.289  1.00  0.00    -0.258 OA
ENDBRANCH   5   8
ENDBRANCH   1   2
BRANCH   1  11
ATOM     11  C   UNL     1      30.666  11.570  34.286  1.00  0.00     0.020 A 
ATOM     12  C   UNL     1      29.672  12.397  34.667  1.00  0.00     0.206 A 
ATOM     13  C   UNL     1      30.432  10.110  34.464  1.00  0.00     0.025 A 
ATOM     14  C   UNL     1      28.395  11.914  35.252  1.00  0.00     0.379 A 
ATOM     15  C   UNL     1      31.349   9.112  34.096  1.00  0.00     0.012 A 
ATOM     16  C   UNL     1      29.229   9.672  35.026  1.00  0.00     0.139 A 
ATOM     17  O   UNL     1      27.540  12.743  35.562  1.00  0.00    -0.242 OA
ATOM     18  O   UNL     1      28.224  10.565  35.427  1.00  0.00    -0.420 OA
ATOM     19  C   UNL     1      31.070   7.752  34.290  1.00  0.00     0.001 A 
ATOM     20  C   UNL     1      28.937   8.319  35.228  1.00  0.00     0.048 A 
ATOM     21  C   UNL     1      29.865   7.355  34.858  1.00  0.00     0.004 A 
BRANCH  12  22
ATOM     22  O   UNL     1      29.762  13.775  34.513  1.00  0.00    -0.502 OA
ATOM     23  H   UNL     1      30.708  13.951  34.309  1.00  0.00     0.293 HD
ENDBRANCH  12  22
ENDBRANCH   1  11
BRANCH   1  24
ATOM     24  C   UNL     1      32.512  13.433  34.162  1.00  0.00     0.088 C 
BRANCH  24  25
ATOM     25  C   UNL     1      33.179  13.398  35.527  1.00  0.00     0.130 C 
ATOM     26  O   UNL     1      33.087  12.431  36.285  1.00  0.00    -0.300 OA
ATOM     27  C   UNL     1      33.911  14.644  35.948  1.00  0.00     0.087 C 
ENDBRANCH  24  25
ENDBRANCH   1  24
TORSDOF 6
ENDMDL
MODEL 15
REMARK VINA RESULT:    -7.121     15.655     19.018
REMARK INTER + INTRA:         -10.490
REMARK INTER:                  -9.589
REMARK INTRA:                  -0.901
REMARK UNBOUND:                -1.079
REMARK SMILES CC(=O)C[C@H](c1ccc([N+](=O)[O-])cc1)c1c(O)c(=O)oc2ccccc12
REMARK SMILES IDX 5 1 6 2 7 3 8 4 9 5 14 6 13 7 10 8 11 9 12 10 15 11 16 12
REMARK SMILES IDX 26 13 18 14 25 15 21 16 19 17 20 18 24 19 22 20 23 21 17 22
REMARK SMILES IDX 4 24 2 25 3 26 1 27
REMARK H PARENT 17 23
ROOT
ATOM      1  C   UNL     1      30.521  14.198  16.830  1.00  0.00     0.061 C 
ENDROOT
BRANCH   1   2
ATOM      2  C   UNL     1      29.654  14.345  15.572  1.00  0.00    -0.039 A 
ATOM      3  C   UNL     1      28.315  13.916  15.593  1.00  0.00     0.011 A 
ATOM      4  C   UNL     1      27.508  14.028  14.457  1.00  0.00     0.086 A 
ATOM      5  C   UNL     1      28.042  14.567  13.283  1.00  0.00     0.269 A 
ATOM      6  C   UNL     1      30.176  14.869  14.377  1.00  0.00     0.011 A 
ATOM      7  C   UNL     1      29.377  14.987  13.237  1.00  0.00     0.086 A 
BRANCH   5   8
ATOM      8  N   UNL     1      27.200  14.689  12.087  1.00  0.00     0.062 N 
ATOM      9  O   UNL     1      27.160  15.790  11.519  1.00  0.00    -0.258 OA
ATOM     10  O   UNL     1      26.579  13.683  11.713  1.00  0.00    -0.258 OA
ENDBRANCH   5   8
ENDBRANCH   1   2
BRANCH   1  11
ATOM     11  C   UNL     1      31.875  13.523  16.517  1.00  0.00     0.020 A 
ATOM     12  C   UNL     1      33.073  14.126  16.649  1.00  0.00     0.206 A 
ATOM     13  C   UNL     1      31.879  12.120  16.020  1.00  0.00     0.025 A 
ATOM     14  C   UNL     1      34.357  13.460  16.313  1.00  0.00     0.379 A 
ATOM     15  C   UNL     1      30.725  11.337  15.850  1.00  0.00     0.012 A 
ATOM     16  C   UNL     1      33.096  11.511  15.697  1.00  0.00     0.139 A 
ATOM     17  O   UNL     1      35.404  14.087  16.474  1.00  0.00    -0.242 OA
ATOM     18  O   UNL     1      34.323  12.177  15.831  1.00  0.00    -0.420 OA
ATOM     19  C   UNL     1      30.795  10.020  15.376  1.00  0.00     0.001 A 
ATOM     20  C   UNL     1      33.182  10.198  15.222  1.00  0.00     0.048 A 
ATOM     21  C   UNL     1      32.023   9.450  15.061  1.00  0.00     0.004 A 
BRANCH  12  22
ATOM     22  O   UNL     1      33.195  15.420  17.140  1.00  0.00    -0.502 OA
ATOM     23  H   UNL     1      32.369  15.582  17.650  1.00  0.00     0.293 HD
ENDBRANCH  12  22
ENDBRANCH   1  11
BRANCH   1  24
ATOM     24  C   UNL     1      29.686  13.567  17.968  1.00  0.00     0.088 C 
BRANCH  24  25
ATOM     25  C   UNL     1      29.287  14.577  19.032  1.00  0.00     0.130 C 
ATOM     26  O   UNL     1      30.112  15.258  19.642  1.00  0.00    -0.300 OA
ATOM     27  C   UNL     1      27.820  14.660  19.360  1.00  0.00     0.087 C 
ENDBRANCH  24  25
ENDBRANCH   1  24
TORSDOF 6
ENDMDL
MODEL 16
REMARK VINA RESULT:    -7.113     16.508     18.722
REMARK INTER + INTRA:         -10.478
REMARK INTER:                 -10.154
REMARK INTRA:                  -0.325
REMARK UNBOUND:                -1.079
REMARK SMILES CC(=O)C[C@H](c1ccc([N+](=O)[O-])cc1)c1c(O)c(=O)oc2ccccc12
REMARK SMILES IDX 5 1 6 2 7 3 8 4 9 5 14 6 13 7 10 8 11 9 12 10 15 11 16 12
REMARK SMILES IDX 26 13 18 14 25 15 21 16 19 17 20 18 24 19 22 20 23 21 17 22
REMARK SMILES IDX 4 24 2 25 3 26 1 27
REMARK H PARENT 17 23
ROOT
ATOM      1  C   UNL     1      32.399  10.216  14.191  1.00  0.00     0.061 C 
ENDROOT
BRANCH   1   2
ATOM      2  C   UNL     1      33.401   9.226  14.800  1.00  0.00    -0.039 A 
ATOM      3  C   UNL     1      33.067   7.863  14.897  1.00  0.00     0.011 A 
ATOM      4  C   UNL     1      33.958   6.945  15.459  1.00  0.00     0.086 A 
ATOM      5  C   UNL     1      35.194   7.388  15.938  1.00  0.00     0.269 A 
ATOM      6  C   UNL     1      34.642   9.654  15.303  1.00  0.00     0.011 A 
ATOM      7  C   UNL     1      35.540   8.743  15.865  1.00  0.00     0.086 A 
BRANCH   5   8
ATOM      8  N   UNL     1      36.135   6.428  16.528  1.00  0.00     0.062 N 
ATOM      9  O   UNL     1      35.782   5.243  16.597  1.00  0.00    -0.258 OA
ATOM     10  O   UNL     1      37.229   6.859  16.922  1.00  0.00    -0.258 OA
ENDBRANCH   5   8
ENDBRANCH   1   2
BRANCH   1  11
ATOM     11  C   UNL     1      32.566  11.635  14.775  1.00  0.00     0.020 A 
ATOM     12  C   UNL     1      33.470  12.535  14.339  1.00  0.00     0.206 A 
ATOM     13  C   UNL     1      31.694  12.052  15.908  1.00  0.00     0.025 A 
ATOM     14  C   UNL     1      33.627  13.884  14.941  1.00  0.00     0.379 A 
ATOM     15  C   UNL     1      30.686  11.250  16.466  1.00  0.00     0.012 A 
ATOM     16  C   UNL     1      31.862  13.321  16.471  1.00  0.00     0.139 A 
ATOM     17  O   UNL     1      34.473  14.643  14.469  1.00  0.00    -0.242 OA
ATOM     18  O   UNL     1      32.826  14.225  16.000  1.00  0.00    -0.420 OA
ATOM     19  C   UNL     1      29.897  11.700  17.535  1.00  0.00     0.001 A 
ATOM     20  C   UNL     1      31.085  13.784  17.538  1.00  0.00     0.048 A 
ATOM     21  C   UNL     1      30.098  12.967  18.072  1.00  0.00     0.004 A 
BRANCH  12  22
ATOM     22  O   UNL     1      34.310  12.271  13.264  1.00  0.00    -0.502 OA
ATOM     23  H   UNL     1      34.411  13.133  12.798  1.00  0.00     0.293 HD
ENDBRANCH  12  22
ENDBRANCH   1  11
BRANCH   1  24
ATOM     24  C   UNL     1      30.975   9.614  14.244  1.00  0.00     0.088 C 
BRANCH  24  25
ATOM     25  C   UNL     1      30.187   9.855  12.967  1.00  0.00     0.130 C 
ATOM     26  O   UNL     1      30.540   9.406  11.875  1.00  0.00    -0.300 OA
ATOM     27  C   UNL     1      28.974  10.739  13.084  1.00  0.00     0.087 C 
ENDBRANCH  24  25
ENDBRANCH   1  24
TORSDOF 6
ENDMDL
MODEL 17
REMARK VINA RESULT:    -6.999     16.659     18.592
REMARK INTER + INTRA:         -10.328
REMARK INTER:                  -9.797
REMARK INTRA:                  -0.531
REMARK UNBOUND:                -1.079
REMARK SMILES CC(=O)C[C@H](c1ccc([N+](=O)[O-])cc1)c1c(O)c(=O)oc2ccccc12
REMARK SMILES IDX 5 1 6 2 7 3 8 4 9 5 14 6 13 7 10 8 11 9 12 10 15 11 16 12
REMARK SMILES IDX 26 13 18 14 25 15 21 16 19 17 20 18 24 19 22 20 23 21 17 22
REMARK SMILES IDX 4 24 2 25 3 26 1 27
REMARK H PARENT 17 23
ROOT
ATOM      1  C   UNL     1      32.834  12.838  15.851  1.00  0.00     0.061 C 
ENDROOT
BRANCH   1   2
ATOM      2  C   UNL     1      32.984  11.340  15.550  1.00  0.00    -0.039 A 
ATOM      3  C   UNL     1      34.242  10.724  15.678  1.00  0.00     0.011 A 
ATOM      4  C   UNL     1      34.407   9.365  15.399  1.00  0.00     0.086 A 
ATOM      5  C   UNL     1      33.308   8.610  14.977  1.00  0.00     0.269 A 
ATOM      6  C   UNL     1      31.896  10.567  15.109  1.00  0.00     0.011 A 
ATOM      7  C   UNL     1      32.051   9.207  14.829  1.00  0.00     0.086 A 
BRANCH   5   8
ATOM      8  N   UNL     1      33.474   7.181  14.683  1.00  0.00     0.062 N 
ATOM      9  O   UNL     1      33.927   6.456  15.580  1.00  0.00    -0.258 OA
ATOM     10  O   UNL     1      33.149   6.782  13.555  1.00  0.00    -0.258 OA
ENDBRANCH   5   8
ENDBRANCH   1   2
BRANCH   1  11
ATOM     11  C   UNL     1      31.353  13.245  16.011  1.00  0.00     0.020 A 
ATOM     12  C   UNL     1      30.683  13.226  17.181  1.00  0.00     0.206 A 
ATOM     13  C   UNL     1      30.591  13.673  14.806  1.00  0.00     0.025 A 
ATOM     14  C   UNL     1      29.249  13.596  17.299  1.00  0.00     0.379 A 
ATOM     15  C   UNL     1      31.141  13.774  13.518  1.00  0.00     0.012 A 
ATOM     16  C   UNL     1      29.240  14.007  14.932  1.00  0.00     0.139 A 
ATOM     17  O   UNL     1      28.722  13.558  18.411  1.00  0.00    -0.242 OA
ATOM     18  O   UNL     1      28.571  13.959  16.164  1.00  0.00    -0.420 OA
ATOM     19  C   UNL     1      30.371  14.183  12.421  1.00  0.00     0.001 A 
ATOM     20  C   UNL     1      28.456  14.415  13.847  1.00  0.00     0.048 A 
ATOM     21  C   UNL     1      29.028  14.502  12.585  1.00  0.00     0.004 A 
BRANCH  12  22
ATOM     22  O   UNL     1      31.300  12.881  18.377  1.00  0.00    -0.502 OA
ATOM     23  H   UNL     1      31.513  11.924  18.291  1.00  0.00     0.293 HD
ENDBRANCH  12  22
ENDBRANCH   1  11
BRANCH   1  24
ATOM     24  C   UNL     1      33.666  13.659  14.838  1.00  0.00     0.088 C 
BRANCH  24  25
ATOM     25  C   UNL     1      34.472  14.764  15.500  1.00  0.00     0.130 C 
ATOM     26  O   UNL     1      34.682  15.849  14.955  1.00  0.00    -0.300 OA
ATOM     27  C   UNL     1      35.067  14.446  16.845  1.00  0.00     0.087 C 
ENDBRANCH  24  25
ENDBRANCH   1  24
TORSDOF 6
ENDMDL
MODEL 18
REMARK VINA RESULT:    -6.945     14.791     17.906
REMARK INTER + INTRA:         -10.257
REMARK INTER:                  -9.424
REMARK INTRA:                  -0.833
REMARK UNBOUND:                -1.079
REMARK SMILES CC(=O)C[C@H](c1ccc([N+](=O)[O-])cc1)c1c(O)c(=O)oc2ccccc12
REMARK SMILES IDX 5 1 6 2 7 3 8 4 9 5 14 6 13 7 10 8 11 9 12 10 15 11 16 12
REMARK SMILES IDX 26 13 18 14 25 15 21 16 19 17 20 18 24 19 22 20 23 21 17 22
REMARK SMILES IDX 4 24 2 25 3 26 1 27
REMARK H PARENT 17 23
ROOT
ATOM      1  C   UNL     1      30.937  14.188  15.755  1.00  0.00     0.061 C 
ENDROOT
BRANCH   1   2
ATOM      2  C   UNL     1      30.232  14.477  17.086  1.00  0.00    -0.039 A 
ATOM      3  C   UNL     1      29.244  13.595  17.560  1.00  0.00     0.011 A 
ATOM      4  C   UNL     1      28.579  13.842  18.764  1.00  0.00     0.086 A 
ATOM      5  C   UNL     1      28.894  14.987  19.503  1.00  0.00     0.269 A 
ATOM      6  C   UNL     1      30.521  15.630  17.836  1.00  0.00     0.011 A 
ATOM      7  C   UNL     1      29.863  15.886  19.041  1.00  0.00     0.086 A 
BRANCH   5   8
ATOM      8  N   UNL     1      28.199  15.252  20.769  1.00  0.00     0.062 N 
ATOM      9  O   UNL     1      27.081  14.745  20.930  1.00  0.00    -0.258 OA
ATOM     10  O   UNL     1      28.773  15.967  21.604  1.00  0.00    -0.258 OA
ENDBRANCH   5   8
ENDBRANCH   1   2
BRANCH   1  11
ATOM     11  C   UNL     1      32.323  13.541  15.968  1.00  0.00     0.020 A 
ATOM     12  C   UNL     1      33.421  14.213  16.370  1.00  0.00     0.206 A 
ATOM     13  C   UNL     1      32.485  12.086  15.702  1.00  0.00     0.025 A 
ATOM     14  C   UNL     1      34.749  13.569  16.539  1.00  0.00     0.379 A 
ATOM     15  C   UNL     1      31.442  11.234  15.303  1.00  0.00     0.012 A 
ATOM     16  C   UNL     1      33.744  11.497  15.854  1.00  0.00     0.139 A 
ATOM     17  O   UNL     1      35.693  14.260  16.920  1.00  0.00    -0.242 OA
ATOM     18  O   UNL     1      34.868  12.232  16.258  1.00  0.00    -0.420 OA
ATOM     19  C   UNL     1      31.658   9.870  15.066  1.00  0.00     0.001 A 
ATOM     20  C   UNL     1      33.977  10.137  15.620  1.00  0.00     0.048 A 
ATOM     21  C   UNL     1      32.926   9.321  15.223  1.00  0.00     0.004 A 
BRANCH  12  22
ATOM     22  O   UNL     1      33.382  15.566  16.685  1.00  0.00    -0.502 OA
ATOM     23  H   UNL     1      33.318  15.600  17.667  1.00  0.00     0.293 HD
ENDBRANCH  12  22
ENDBRANCH   1  11
BRANCH   1  24
ATOM     24  C   UNL     1      30.898  15.449  14.860  1.00  0.00     0.088 C 
BRANCH  24  25
ATOM     25  C   UNL     1      29.524  15.702  14.262  1.00  0.00     0.130 C 
ATOM     26  O   UNL     1      29.072  15.031  13.332  1.00  0.00    -0.300 OA
ATOM     27  C   UNL     1      28.755  16.869  14.820  1.00  0.00     0.087 C 
ENDBRANCH  24  25
ENDBRANCH   1  24
TORSDOF 6
ENDMDL
MODEL 19
REMARK VINA RESULT:    -6.869     15.872     18.517
REMARK INTER + INTRA:         -10.157
REMARK INTER:                  -9.062
REMARK INTRA:                  -1.095
REMARK UNBOUND:                -1.079
REMARK SMILES CC(=O)C[C@H](c1ccc([N+](=O)[O-])cc1)c1c(O)c(=O)oc2ccccc12
REMARK SMILES IDX 5 1 6 2 7 3 8 4 9 5 14 6 13 7 10 8 11 9 12 10 15 11 16 12
REMARK SMILES IDX 26 13 18 14 25 15 21 16 19 17 20 18 24 19 22 20 23 21 17 22
REMARK SMILES IDX 4 24 2 25 3 26 1 27
REMARK H PARENT 17 23
ROOT
ATOM      1  C   UNL     1      30.891  12.270  14.521  1.00  0.00     0.061 C 
ENDROOT
BRANCH   1   2
ATOM      2  C   UNL     1      30.222  12.873  15.763  1.00  0.00    -0.039 A 
ATOM      3  C   UNL     1      30.007  14.260  15.838  1.00  0.00     0.011 A 
ATOM      4  C   UNL     1      29.410  14.835  16.964  1.00  0.00     0.086 A 
ATOM      5  C   UNL     1      29.030  14.019  18.034  1.00  0.00     0.269 A 
ATOM      6  C   UNL     1      29.848  12.072  16.857  1.00  0.00     0.011 A 
ATOM      7  C   UNL     1      29.250  12.637  17.986  1.00  0.00     0.086 A 
BRANCH   5   8
ATOM      8  N   UNL     1      28.402  14.615  19.219  1.00  0.00     0.062 N 
ATOM      9  O   UNL     1      29.089  15.376  19.915  1.00  0.00    -0.258 OA
ATOM     10  O   UNL     1      27.220  14.325  19.454  1.00  0.00    -0.258 OA
ENDBRANCH   5   8
ENDBRANCH   1   2
BRANCH   1  11
ATOM     11  C   UNL     1      32.005  11.269  14.897  1.00  0.00     0.020 A 
ATOM     12  C   UNL     1      31.986   9.958  14.585  1.00  0.00     0.206 A 
ATOM     13  C   UNL     1      33.178  11.759  15.671  1.00  0.00     0.025 A 
ATOM     14  C   UNL     1      33.060   9.013  14.986  1.00  0.00     0.379 A 
ATOM     15  C   UNL     1      33.370  13.096  16.056  1.00  0.00     0.012 A 
ATOM     16  C   UNL     1      34.175  10.855  16.052  1.00  0.00     0.139 A 
ATOM     17  O   UNL     1      32.962   7.834  14.647  1.00  0.00    -0.242 OA
ATOM     18  O   UNL     1      34.112   9.493  15.722  1.00  0.00    -0.420 OA
ATOM     19  C   UNL     1      34.497  13.496  16.787  1.00  0.00     0.001 A 
ATOM     20  C   UNL     1      35.305  11.237  16.782  1.00  0.00     0.048 A 
ATOM     21  C   UNL     1      35.465  12.566  17.151  1.00  0.00     0.004 A 
BRANCH  12  22
ATOM     22  O   UNL     1      30.962   9.396  13.832  1.00  0.00    -0.502 OA
ATOM     23  H   UNL     1      31.371   8.629  13.371  1.00  0.00     0.293 HD
ENDBRANCH  12  22
ENDBRANCH   1  11
BRANCH   1  24
ATOM     24  C   UNL     1      31.285  13.400  13.541  1.00  0.00     0.088 C 
BRANCH  24  25
ATOM     25  C   UNL     1      31.936  12.876  12.272  1.00  0.00     0.130 C 
ATOM     26  O   UNL     1      31.325  12.200  11.443  1.00  0.00    -0.300 OA
ATOM     27  C   UNL     1      33.403  13.168  12.101  1.00  0.00     0.087 C 
ENDBRANCH  24  25
ENDBRANCH   1  24
TORSDOF 6
ENDMDL
MODEL 20
REMARK VINA RESULT:    -6.865     14.136     16.295
REMARK INTER + INTRA:         -10.151
REMARK INTER:                  -8.954
REMARK INTRA:                  -1.197
REMARK UNBOUND:                -1.079
REMARK SMILES CC(=O)C[C@H](c1ccc([N+](=O)[O-])cc1)c1c(O)c(=O)oc2ccccc12
REMARK SMILES IDX 5 1 6 2 7 3 8 4 9 5 14 6 13 7 10 8 11 9 12 10 15 11 16 12
REMARK SMILES IDX 26 13 18 14 25 15 21 16 19 17 20 18 24 19 22 20 23 21 17 22
REMARK SMILES IDX 4 24 2 25 3 26 1 27
REMARK H PARENT 17 23
ROOT
ATOM      1  C   UNL     1      29.202  15.929  19.368  1.00  0.00     0.061 C 
ENDROOT
BRANCH   1   2
ATOM      2  C   UNL     1      29.774  14.734  18.593  1.00  0.00    -0.039 A 
ATOM      3  C   UNL     1      31.042  14.832  17.993  1.00  0.00     0.011 A 
ATOM      4  C   UNL     1      31.580  13.762  17.273  1.00  0.00     0.086 A 
ATOM      5  C   UNL     1      30.843  12.581  17.140  1.00  0.00     0.269 A 
ATOM      6  C   UNL     1      29.043  13.544  18.434  1.00  0.00     0.011 A 
ATOM      7  C   UNL     1      29.573  12.468  17.717  1.00  0.00     0.086 A 
BRANCH   5   8
ATOM      8  N   UNL     1      31.403  11.453  16.385  1.00  0.00     0.062 N 
ATOM      9  O   UNL     1      30.631  10.544  16.051  1.00  0.00    -0.258 OA
ATOM     10  O   UNL     1      32.615  11.477  16.124  1.00  0.00    -0.258 OA
ENDBRANCH   5   8
ENDBRANCH   1   2
BRANCH   1  11
ATOM     11  C   UNL     1      27.804  16.332  18.850  1.00  0.00     0.020 A 
ATOM     12  C   UNL     1      27.568  16.851  17.628  1.00  0.00     0.206 A 
ATOM     13  C   UNL     1      26.629  16.162  19.748  1.00  0.00     0.025 A 
ATOM     14  C   UNL     1      26.215  17.257  17.169  1.00  0.00     0.379 A 
ATOM     15  C   UNL     1      26.694  15.614  21.039  1.00  0.00     0.012 A 
ATOM     16  C   UNL     1      25.365  16.560  19.305  1.00  0.00     0.139 A 
ATOM     17  O   UNL     1      26.092  17.713  16.032  1.00  0.00    -0.242 OA
ATOM     18  O   UNL     1      25.159  17.112  18.032  1.00  0.00    -0.420 OA
ATOM     19  C   UNL     1      25.550  15.481  21.838  1.00  0.00     0.001 A 
ATOM     20  C   UNL     1      24.213  16.435  20.090  1.00  0.00     0.048 A 
ATOM     21  C   UNL     1      24.310  15.893  21.365  1.00  0.00     0.004 A 
BRANCH  12  22
ATOM     22  O   UNL     1      28.580  17.020  16.692  1.00  0.00    -0.502 OA
ATOM     23  H   UNL     1      28.690  17.993  16.603  1.00  0.00     0.293 HD
ENDBRANCH  12  22
ENDBRANCH   1  11
BRANCH   1  24
ATOM     24  C   UNL     1      30.259  17.056  19.442  1.00  0.00     0.088 C 
BRANCH  24  25
ATOM     25  C   UNL     1      30.621  17.427  20.870  1.00  0.00     0.130 C 
ATOM     26  O   UNL     1      31.756  17.280  21.327  1.00  0.00    -0.300 OA
ATOM     27  C   UNL     1      29.498  17.929  21.738  1.00  0.00     0.087 C 
ENDBRANCH  24  25
ENDBRANCH   1  24
TORSDOF 6
ENDMDL
