MODEL 1
REMARK VINA RESULT:    -8.565      0.000      0.000
REMARK INTER + INTRA:         -10.818
REMARK INTER:                 -10.567
REMARK INTRA:                  -0.251
REMARK UNBOUND:                -0.251
REMARK SMILES O=c1oc2ccccc2c(O)c1C(c1ccccc1)c1c(O)c2ccccc2oc1=O
REMARK SMILES IDX 13 1 12 2 1 3 2 4 3 5 4 6 10 7 5 8 9 9 6 10 8 11 7 12 11 13
REMARK SMILES IDX 14 15 15 16 19 17 16 18 18 19 17 20 20 21 21 22 30 23 23 24
REMARK SMILES IDX 29 25 31 26 24 27 28 28 25 29 27 30 26 31 22 32
REMARK H PARENT 11 14 22 33
ROOT
ATOM      1  C   UNL     1      31.258  11.901  14.400  1.00  0.00     0.102 C 
ENDROOT
BRANCH   1   2
ATOM      2  C   UNL     1      32.499  11.033  14.643  1.00  0.00     0.092 A 
ATOM      3  O   UNL     1      33.986  12.883  14.437  1.00  0.00    -0.246 OA
ATOM      4  C   UNL     1      33.834  11.677  14.598  1.00  0.00     0.344 A 
ATOM      5  O   UNL     1      34.950  10.856  14.709  1.00  0.00    -0.422 OA
ATOM      6  C   UNL     1      34.841   9.487  14.990  1.00  0.00     0.142 A 
ATOM      7  C   UNL     1      32.411   9.703  14.846  1.00  0.00     0.138 A 
ATOM      8  C   UNL     1      36.033   8.789  15.188  1.00  0.00     0.048 A 
ATOM      9  C   UNL     1      33.595   8.878  15.094  1.00  0.00     0.060 A 
ATOM     10  C   UNL     1      35.984   7.439  15.518  1.00  0.00     0.004 A 
ATOM     11  C   UNL     1      33.561   7.524  15.455  1.00  0.00     0.016 A 
ATOM     12  C   UNL     1      34.747   6.808  15.660  1.00  0.00     0.001 A 
BRANCH   7  13
ATOM     13  O   UNL     1      31.185   9.065  14.816  1.00  0.00    -0.507 OA
ATOM     14  H   UNL     1      31.104   8.512  15.610  1.00  0.00     0.293 HD
ENDBRANCH   7  13
ENDBRANCH   1   2
BRANCH   1  15
ATOM     15  C   UNL     1      30.210  11.249  13.488  1.00  0.00    -0.035 A 
ATOM     16  C   UNL     1      30.580  10.841  12.193  1.00  0.00     0.005 A 
ATOM     17  C   UNL     1      28.881  11.042  13.893  1.00  0.00     0.005 A 
ATOM     18  C   UNL     1      29.657  10.232  11.340  1.00  0.00     0.000 A 
ATOM     19  C   UNL     1      27.958  10.435  13.037  1.00  0.00     0.000 A 
ATOM     20  C   UNL     1      28.347  10.027  11.764  1.00  0.00     0.000 A 
ENDBRANCH   1  15
BRANCH   1  21
ATOM     21  C   UNL     1      30.745  12.661  15.627  1.00  0.00     0.092 A 
ATOM     22  C   UNL     1      30.787  14.008  15.673  1.00  0.00     0.138 A 
ATOM     23  C   UNL     1      30.170  11.907  16.778  1.00  0.00     0.344 A 
ATOM     24  C   UNL     1      30.328  14.763  16.841  1.00  0.00     0.060 A 
ATOM     25  O   UNL     1      29.603  12.659  17.804  1.00  0.00    -0.422 OA
ATOM     26  O   UNL     1      30.131  10.686  16.845  1.00  0.00    -0.246 OA
ATOM     27  C   UNL     1      30.479  16.148  17.007  1.00  0.00     0.016 A 
ATOM     28  C   UNL     1      29.718  14.054  17.867  1.00  0.00     0.142 A 
ATOM     29  C   UNL     1      29.989  16.788  18.153  1.00  0.00     0.001 A 
ATOM     30  C   UNL     1      29.223  14.675  19.014  1.00  0.00     0.048 A 
ATOM     31  C   UNL     1      29.355  16.052  19.152  1.00  0.00     0.004 A 
BRANCH  22  32
ATOM     32  O   UNL     1      31.268  14.733  14.596  1.00  0.00    -0.507 OA
ATOM     33  H   UNL     1      30.578  14.764  13.912  1.00  0.00     0.293 HD
ENDBRANCH  22  32
ENDBRANCH   1  21
TORSDOF 5
ENDMDL
MODEL 2
REMARK VINA RESULT:    -8.545     15.410     18.001
REMARK INTER + INTRA:         -10.794
REMARK INTER:                 -11.122
REMARK INTRA:                   0.329
REMARK UNBOUND:                -0.251
REMARK SMILES O=c1oc2ccccc2c(O)c1C(c1ccccc1)c1c(O)c2ccccc2oc1=O
REMARK SMILES IDX 13 1 12 2 1 3 2 4 3 5 4 6 10 7 5 8 9 9 6 10 8 11 7 12 11 13
REMARK SMILES IDX 14 15 15 16 19 17 16 18 18 19 17 20 20 21 21 22 30 23 23 24
REMARK SMILES IDX 29 25 31 26 24 27 28 28 25 29 27 30 26 31 22 32
REMARK H PARENT 11 14 22 33
ROOT
ATOM      1  C   UNL     1      30.037  11.069  32.643  1.00  0.00     0.102 C 
ENDROOT
BRANCH   1   2
ATOM      2  C   UNL     1      30.225   9.547  32.701  1.00  0.00     0.092 A 
ATOM      3  O   UNL     1      31.670   9.671  34.591  1.00  0.00    -0.246 OA
ATOM      4  C   UNL     1      31.121   8.982  33.739  1.00  0.00     0.344 A 
ATOM      5  O   UNL     1      31.364   7.614  33.705  1.00  0.00    -0.422 OA
ATOM      6  C   UNL     1      30.693   6.761  32.818  1.00  0.00     0.142 A 
ATOM      7  C   UNL     1      29.638   8.722  31.810  1.00  0.00     0.138 A 
ATOM      8  C   UNL     1      30.940   5.394  32.953  1.00  0.00     0.048 A 
ATOM      9  C   UNL     1      29.804   7.268  31.877  1.00  0.00     0.060 A 
ATOM     10  C   UNL     1      30.263   4.497  32.133  1.00  0.00     0.004 A 
ATOM     11  C   UNL     1      29.109   6.350  31.077  1.00  0.00     0.016 A 
ATOM     12  C   UNL     1      29.342   4.974  31.200  1.00  0.00     0.001 A 
BRANCH   7  13
ATOM     13  O   UNL     1      28.860   9.227  30.786  1.00  0.00    -0.507 OA
ATOM     14  H   UNL     1      28.506  10.089  31.061  1.00  0.00     0.293 HD
ENDBRANCH   7  13
ENDBRANCH   1   2
BRANCH   1  15
ATOM     15  C   UNL     1      29.438  11.672  33.921  1.00  0.00    -0.035 A 
ATOM     16  C   UNL     1      28.839  10.822  34.870  1.00  0.00     0.005 A 
ATOM     17  C   UNL     1      29.458  13.051  34.186  1.00  0.00     0.005 A 
ATOM     18  C   UNL     1      28.296  11.333  36.051  1.00  0.00     0.000 A 
ATOM     19  C   UNL     1      28.911  13.560  35.367  1.00  0.00     0.000 A 
ATOM     20  C   UNL     1      28.334  12.703  36.299  1.00  0.00     0.000 A 
ENDBRANCH   1  15
BRANCH   1  21
ATOM     21  C   UNL     1      31.177  11.839  31.970  1.00  0.00     0.092 A 
ATOM     22  C   UNL     1      32.153  12.411  32.705  1.00  0.00     0.138 A 
ATOM     23  C   UNL     1      31.225  11.941  30.484  1.00  0.00     0.344 A 
ATOM     24  C   UNL     1      33.243  13.175  32.094  1.00  0.00     0.060 A 
ATOM     25  O   UNL     1      32.353  12.540  29.929  1.00  0.00    -0.422 OA
ATOM     26  O   UNL     1      30.364  11.493  29.738  1.00  0.00    -0.246 OA
ATOM     27  C   UNL     1      34.200  13.910  32.808  1.00  0.00     0.016 A 
ATOM     28  C   UNL     1      33.322  13.189  30.708  1.00  0.00     0.142 A 
ATOM     29  C   UNL     1      35.221  14.597  32.136  1.00  0.00     0.001 A 
ATOM     30  C   UNL     1      34.332  13.864  30.022  1.00  0.00     0.048 A 
ATOM     31  C   UNL     1      35.290  14.566  30.744  1.00  0.00     0.004 A 
BRANCH  22  32
ATOM     32  O   UNL     1      32.159  12.286  34.084  1.00  0.00    -0.507 OA
ATOM     33  H   UNL     1      31.249  12.399  34.408  1.00  0.00     0.293 HD
ENDBRANCH  22  32
ENDBRANCH   1  21
TORSDOF 5
ENDMDL
MODEL 3
REMARK VINA RESULT:    -8.391      2.414      7.267
REMARK INTER + INTRA:         -10.604
REMARK INTER:                 -10.270
REMARK INTRA:                  -0.333
REMARK UNBOUND:                -0.251
REMARK SMILES O=c1oc2ccccc2c(O)c1C(c1ccccc1)c1c(O)c2ccccc2oc1=O
REMARK SMILES IDX 13 1 12 2 1 3 2 4 3 5 4 6 10 7 5 8 9 9 6 10 8 11 7 12 11 13
REMARK SMILES IDX 14 15 15 16 19 17 16 18 18 19 17 20 20 21 21 22 30 23 23 24
REMARK SMILES IDX 29 25 31 26 24 27 28 28 25 29 27 30 26 31 22 32
REMARK H PARENT 11 14 22 33
ROOT
ATOM      1  C   UNL     1      31.472  13.611  15.507  1.00  0.00     0.102 C 
ENDROOT
BRANCH   1   2
ATOM      2  C   UNL     1      30.715  14.667  16.322  1.00  0.00     0.092 A 
ATOM      3  O   UNL     1      30.132  15.925  14.384  1.00  0.00    -0.246 OA
ATOM      4  C   UNL     1      30.108  15.815  15.605  1.00  0.00     0.344 A 
ATOM      5  O   UNL     1      29.524  16.817  16.370  1.00  0.00    -0.422 OA
ATOM      6  C   UNL     1      29.380  16.703  17.760  1.00  0.00     0.142 A 
ATOM      7  C   UNL     1      30.629  14.605  17.666  1.00  0.00     0.138 A 
ATOM      8  C   UNL     1      28.679  17.723  18.405  1.00  0.00     0.048 A 
ATOM      9  C   UNL     1      29.891  15.604  18.441  1.00  0.00     0.060 A 
ATOM     10  C   UNL     1      28.463  17.637  19.776  1.00  0.00     0.004 A 
ATOM     11  C   UNL     1      29.642  15.519  19.818  1.00  0.00     0.016 A 
ATOM     12  C   UNL     1      28.937  16.531  20.482  1.00  0.00     0.001 A 
BRANCH   7  13
ATOM     13  O   UNL     1      31.250  13.588  18.366  1.00  0.00    -0.507 OA
ATOM     14  H   UNL     1      30.976  13.638  19.296  1.00  0.00     0.293 HD
ENDBRANCH   7  13
ENDBRANCH   1   2
BRANCH   1  15
ATOM     15  C   UNL     1      32.844  13.242  16.087  1.00  0.00    -0.035 A 
ATOM     16  C   UNL     1      33.773  14.262  16.365  1.00  0.00     0.005 A 
ATOM     17  C   UNL     1      33.219  11.915  16.352  1.00  0.00     0.005 A 
ATOM     18  C   UNL     1      35.026  13.966  16.906  1.00  0.00     0.000 A 
ATOM     19  C   UNL     1      34.474  11.620  16.892  1.00  0.00     0.000 A 
ATOM     20  C   UNL     1      35.375  12.644  17.171  1.00  0.00     0.000 A 
ENDBRANCH   1  15
BRANCH   1  21
ATOM     21  C   UNL     1      30.610  12.469  14.961  1.00  0.00     0.092 A 
ATOM     22  C   UNL     1      30.351  12.368  13.642  1.00  0.00     0.138 A 
ATOM     23  C   UNL     1      30.068  11.440  15.894  1.00  0.00     0.344 A 
ATOM     24  C   UNL     1      29.511  11.302  13.091  1.00  0.00     0.060 A 
ATOM     25  O   UNL     1      29.404  10.358  15.322  1.00  0.00    -0.422 OA
ATOM     26  O   UNL     1      30.213  11.473  17.109  1.00  0.00    -0.246 OA
ATOM     27  C   UNL     1      29.088  11.228  11.756  1.00  0.00     0.016 A 
ATOM     28  C   UNL     1      29.084  10.305  13.959  1.00  0.00     0.142 A 
ATOM     29  C   UNL     1      28.299  10.157  11.315  1.00  0.00     0.001 A 
ATOM     30  C   UNL     1      28.300   9.231  13.537  1.00  0.00     0.048 A 
ATOM     31  C   UNL     1      27.912   9.156  12.204  1.00  0.00     0.004 A 
BRANCH  22  32
ATOM     32  O   UNL     1      30.886  13.281  12.749  1.00  0.00    -0.507 OA
ATOM     33  H   UNL     1      31.562  12.830  12.214  1.00  0.00     0.293 HD
ENDBRANCH  22  32
ENDBRANCH   1  21
TORSDOF 5
ENDMDL
MODEL 4
REMARK VINA RESULT:    -8.382      1.525      6.933
REMARK INTER + INTRA:         -10.593
REMARK INTER:                 -10.396
REMARK INTRA:                  -0.197
REMARK UNBOUND:                -0.251
REMARK SMILES O=c1oc2ccccc2c(O)c1C(c1ccccc1)c1c(O)c2ccccc2oc1=O
REMARK SMILES IDX 13 1 12 2 1 3 2 4 3 5 4 6 10 7 5 8 9 9 6 10 8 11 7 12 11 13
REMARK SMILES IDX 14 15 15 16 19 17 16 18 18 19 17 20 20 21 21 22 30 23 23 24
REMARK SMILES IDX 29 25 31 26 24 27 28 28 25 29 27 30 26 31 22 32
REMARK H PARENT 11 14 22 33
ROOT
ATOM      1  C   UNL     1      31.369  12.026  15.071  1.00  0.00     0.102 C 
ENDROOT
BRANCH   1   2
ATOM      2  C   UNL     1      30.880  12.870  16.255  1.00  0.00     0.092 A 
ATOM      3  O   UNL     1      29.797  11.017  17.289  1.00  0.00    -0.246 OA
ATOM      4  C   UNL     1      30.054  12.215  17.299  1.00  0.00     0.344 A 
ATOM      5  O   UNL     1      29.528  13.019  18.303  1.00  0.00    -0.422 OA
ATOM      6  C   UNL     1      29.864  14.375  18.423  1.00  0.00     0.142 A 
ATOM      7  C   UNL     1      31.138  14.190  16.346  1.00  0.00     0.138 A 
ATOM      8  C   UNL     1      29.361  15.051  19.535  1.00  0.00     0.048 A 
ATOM      9  C   UNL     1      30.685  14.991  17.485  1.00  0.00     0.060 A 
ATOM     10  C   UNL     1      29.703  16.385  19.731  1.00  0.00     0.004 A 
ATOM     11  C   UNL     1      31.043  16.328  17.711  1.00  0.00     0.016 A 
ATOM     12  C   UNL     1      30.550  17.021  18.823  1.00  0.00     0.001 A 
BRANCH   7  13
ATOM     13  O   UNL     1      31.840  14.841  15.349  1.00  0.00    -0.507 OA
ATOM     14  H   UNL     1      32.125  14.186  14.690  1.00  0.00     0.293 HD
ENDBRANCH   7  13
ENDBRANCH   1   2
BRANCH   1  15
ATOM     15  C   UNL     1      31.234  12.724  13.711  1.00  0.00    -0.035 A 
ATOM     16  C   UNL     1      29.982  13.236  13.319  1.00  0.00     0.005 A 
ATOM     17  C   UNL     1      32.316  12.873  12.828  1.00  0.00     0.005 A 
ATOM     18  C   UNL     1      29.825  13.889  12.094  1.00  0.00     0.000 A 
ATOM     19  C   UNL     1      32.155  13.525  11.603  1.00  0.00     0.000 A 
ATOM     20  C   UNL     1      30.913  14.034  11.238  1.00  0.00     0.000 A 
ENDBRANCH   1  15
BRANCH   1  21
ATOM     21  C   UNL     1      32.650  11.227  15.326  1.00  0.00     0.092 A 
ATOM     22  C   UNL     1      32.675   9.890  15.159  1.00  0.00     0.138 A 
ATOM     23  C   UNL     1      33.894  11.937  15.742  1.00  0.00     0.344 A 
ATOM     24  C   UNL     1      33.878   9.094  15.419  1.00  0.00     0.060 A 
ATOM     25  O   UNL     1      35.055  11.174  15.831  1.00  0.00    -0.422 OA
ATOM     26  O   UNL     1      33.956  13.139  15.960  1.00  0.00    -0.246 OA
ATOM     27  C   UNL     1      33.926   7.692  15.404  1.00  0.00     0.016 A 
ATOM     28  C   UNL     1      35.048   9.776  15.722  1.00  0.00     0.142 A 
ATOM     29  C   UNL     1      35.129   7.016  15.646  1.00  0.00     0.001 A 
ATOM     30  C   UNL     1      36.256   9.120  15.964  1.00  0.00     0.048 A 
ATOM     31  C   UNL     1      36.295   7.731  15.918  1.00  0.00     0.004 A 
BRANCH  22  32
ATOM     32  O   UNL     1      31.548   9.214  14.724  1.00  0.00    -0.507 OA
ATOM     33  H   UNL     1      30.765   9.626  15.128  1.00  0.00     0.293 HD
ENDBRANCH  22  32
ENDBRANCH   1  21
TORSDOF 5
ENDMDL
MODEL 5
REMARK VINA RESULT:    -8.322      2.061      2.488
REMARK INTER + INTRA:         -10.519
REMARK INTER:                 -10.241
REMARK INTRA:                  -0.278
REMARK UNBOUND:                -0.251
REMARK SMILES O=c1oc2ccccc2c(O)c1C(c1ccccc1)c1c(O)c2ccccc2oc1=O
REMARK SMILES IDX 13 1 12 2 1 3 2 4 3 5 4 6 10 7 5 8 9 9 6 10 8 11 7 12 11 13
REMARK SMILES IDX 14 15 15 16 19 17 16 18 18 19 17 20 20 21 21 22 30 23 23 24
REMARK SMILES IDX 29 25 31 26 24 27 28 28 25 29 27 30 26 31 22 32
REMARK H PARENT 11 14 22 33
ROOT
ATOM      1  C   UNL     1      31.435  14.088  15.485  1.00  0.00     0.102 C 
ENDROOT
BRANCH   1   2
ATOM      2  C   UNL     1      32.399  12.898  15.575  1.00  0.00     0.092 A 
ATOM      3  O   UNL     1      34.141  14.220  16.521  1.00  0.00    -0.246 OA
ATOM      4  C   UNL     1      33.767  13.131  16.099  1.00  0.00     0.344 A 
ATOM      5  O   UNL     1      34.659  12.066  16.068  1.00  0.00    -0.422 OA
ATOM      6  C   UNL     1      34.265  10.776  15.688  1.00  0.00     0.142 A 
ATOM      7  C   UNL     1      32.054  11.667  15.148  1.00  0.00     0.138 A 
ATOM      8  C   UNL     1      35.222   9.767  15.803  1.00  0.00     0.048 A 
ATOM      9  C   UNL     1      32.969  10.527  15.250  1.00  0.00     0.060 A 
ATOM     10  C   UNL     1      34.872   8.459  15.487  1.00  0.00     0.004 A 
ATOM     11  C   UNL     1      32.624   9.200  14.961  1.00  0.00     0.016 A 
ATOM     12  C   UNL     1      33.570   8.174  15.074  1.00  0.00     0.001 A 
BRANCH   7  13
ATOM     13  O   UNL     1      30.813  11.437  14.584  1.00  0.00    -0.507 OA
ATOM     14  H   UNL     1      30.700  12.035  13.827  1.00  0.00     0.293 HD
ENDBRANCH   7  13
ENDBRANCH   1   2
BRANCH   1  15
ATOM     15  C   UNL     1      30.685  14.183  14.150  1.00  0.00    -0.035 A 
ATOM     16  C   UNL     1      31.376  13.930  12.950  1.00  0.00     0.005 A 
ATOM     17  C   UNL     1      29.323  14.518  14.071  1.00  0.00     0.005 A 
ATOM     18  C   UNL     1      30.723  13.994  11.717  1.00  0.00     0.000 A 
ATOM     19  C   UNL     1      28.672  14.583  12.837  1.00  0.00     0.000 A 
ATOM     20  C   UNL     1      29.370  14.318  11.662  1.00  0.00     0.000 A 
ENDBRANCH   1  15
BRANCH   1  21
ATOM     21  C   UNL     1      30.639  14.377  16.761  1.00  0.00     0.092 A 
ATOM     22  C   UNL     1      30.868  15.494  17.480  1.00  0.00     0.138 A 
ATOM     23  C   UNL     1      29.578  13.427  17.202  1.00  0.00     0.344 A 
ATOM     24  C   UNL     1      30.140  15.787  18.718  1.00  0.00     0.060 A 
ATOM     25  O   UNL     1      28.802  13.810  18.293  1.00  0.00    -0.422 OA
ATOM     26  O   UNL     1      29.329  12.369  16.639  1.00  0.00    -0.246 OA
ATOM     27  C   UNL     1      30.434  16.852  19.583  1.00  0.00     0.016 A 
ATOM     28  C   UNL     1      29.100  14.939  19.070  1.00  0.00     0.142 A 
ATOM     29  C   UNL     1      29.668  17.066  20.737  1.00  0.00     0.001 A 
ATOM     30  C   UNL     1      28.326  15.138  20.213  1.00  0.00     0.048 A 
ATOM     31  C   UNL     1      28.610  16.213  21.047  1.00  0.00     0.004 A 
BRANCH  22  32
ATOM     32  O   UNL     1      31.811  16.418  17.063  1.00  0.00    -0.507 OA
ATOM     33  H   UNL     1      31.421  17.306  17.125  1.00  0.00     0.293 HD
ENDBRANCH  22  32
ENDBRANCH   1  21
TORSDOF 5
ENDMDL
MODEL 6
REMARK VINA RESULT:    -8.252     14.966     17.931
REMARK INTER + INTRA:         -10.432
REMARK INTER:                 -11.762
REMARK INTRA:                   1.330
REMARK UNBOUND:                -0.251
REMARK SMILES O=c1oc2ccccc2c(O)c1C(c1ccccc1)c1c(O)c2ccccc2oc1=O
REMARK SMILES IDX 13 1 12 2 1 3 2 4 3 5 4 6 10 7 5 8 9 9 6 10 8 11 7 12 11 13
REMARK SMILES IDX 14 15 15 16 19 17 16 18 18 19 17 20 20 21 21 22 30 23 23 24
REMARK SMILES IDX 29 25 31 26 24 27 28 28 25 29 27 30 26 31 22 32
REMARK H PARENT 11 14 22 33
ROOT
ATOM      1  C   UNL     1      29.954   9.675  32.575  1.00  0.00     0.102 C 
ENDROOT
BRANCH   1   2
ATOM      2  C   UNL     1      30.060   8.192  32.950  1.00  0.00     0.092 A 
ATOM      3  O   UNL     1      32.362   8.074  32.346  1.00  0.00    -0.246 OA
ATOM      4  C   UNL     1      31.356   7.498  32.745  1.00  0.00     0.344 A 
ATOM      5  O   UNL     1      31.400   6.131  32.985  1.00  0.00    -0.422 OA
ATOM      6  C   UNL     1      30.312   5.436  33.533  1.00  0.00     0.142 A 
ATOM      7  C   UNL     1      29.003   7.495  33.413  1.00  0.00     0.138 A 
ATOM      8  C   UNL     1      30.515   4.088  33.832  1.00  0.00     0.048 A 
ATOM      9  C   UNL     1      29.109   6.083  33.787  1.00  0.00     0.060 A 
ATOM     10  C   UNL     1      29.486   3.361  34.423  1.00  0.00     0.004 A 
ATOM     11  C   UNL     1      28.092   5.345  34.408  1.00  0.00     0.016 A 
ATOM     12  C   UNL     1      28.278   3.992  34.718  1.00  0.00     0.001 A 
BRANCH   7  13
ATOM     13  O   UNL     1      27.764   8.096  33.542  1.00  0.00    -0.507 OA
ATOM     14  H   UNL     1      27.077   7.430  33.379  1.00  0.00     0.293 HD
ENDBRANCH   7  13
ENDBRANCH   1   2
BRANCH   1  15
ATOM     15  C   UNL     1      30.251  10.634  33.737  1.00  0.00    -0.035 A 
ATOM     16  C   UNL     1      29.447  11.777  33.909  1.00  0.00     0.005 A 
ATOM     17  C   UNL     1      31.302  10.420  34.642  1.00  0.00     0.005 A 
ATOM     18  C   UNL     1      29.678  12.665  34.963  1.00  0.00     0.000 A 
ATOM     19  C   UNL     1      31.533  11.311  35.694  1.00  0.00     0.000 A 
ATOM     20  C   UNL     1      30.720  12.430  35.856  1.00  0.00     0.000 A 
ENDBRANCH   1  15
BRANCH   1  21
ATOM     21  C   UNL     1      30.521  10.041  31.200  1.00  0.00     0.092 A 
ATOM     22  C   UNL     1      31.351  11.093  31.053  1.00  0.00     0.138 A 
ATOM     23  C   UNL     1      30.174   9.211  30.012  1.00  0.00     0.344 A 
ATOM     24  C   UNL     1      31.891  11.483  29.748  1.00  0.00     0.060 A 
ATOM     25  O   UNL     1      30.823   9.515  28.818  1.00  0.00    -0.422 OA
ATOM     26  O   UNL     1      29.396   8.265  30.040  1.00  0.00    -0.246 OA
ATOM     27  C   UNL     1      32.637  12.647  29.509  1.00  0.00     0.016 A 
ATOM     28  C   UNL     1      31.627  10.653  28.668  1.00  0.00     0.142 A 
ATOM     29  C   UNL     1      33.130  12.928  28.228  1.00  0.00     0.001 A 
ATOM     30  C   UNL     1      32.112  10.916  27.386  1.00  0.00     0.048 A 
ATOM     31  C   UNL     1      32.873  12.059  27.169  1.00  0.00     0.004 A 
BRANCH  22  32
ATOM     32  O   UNL     1      31.731  11.848  32.149  1.00  0.00    -0.507 OA
ATOM     33  H   UNL     1      32.078  11.248  32.832  1.00  0.00     0.293 HD
ENDBRANCH  22  32
ENDBRANCH   1  21
TORSDOF 5
ENDMDL
MODEL 7
REMARK VINA RESULT:    -8.149     15.240     18.553
REMARK INTER + INTRA:         -10.305
REMARK INTER:                 -12.063
REMARK INTRA:                   1.758
REMARK UNBOUND:                -0.251
REMARK SMILES O=c1oc2ccccc2c(O)c1C(c1ccccc1)c1c(O)c2ccccc2oc1=O
REMARK SMILES IDX 13 1 12 2 1 3 2 4 3 5 4 6 10 7 5 8 9 9 6 10 8 11 7 12 11 13
REMARK SMILES IDX 14 15 15 16 19 17 16 18 18 19 17 20 20 21 21 22 30 23 23 24
REMARK SMILES IDX 29 25 31 26 24 27 28 28 25 29 27 30 26 31 22 32
REMARK H PARENT 11 14 22 33
ROOT
ATOM      1  C   UNL     1      30.155  11.297  33.438  1.00  0.00     0.102 C 
ENDROOT
BRANCH   1   2
ATOM      2  C   UNL     1      29.838   9.876  33.922  1.00  0.00     0.092 A 
ATOM      3  O   UNL     1      27.922  10.587  35.148  1.00  0.00    -0.246 OA
ATOM      4  C   UNL     1      28.676   9.676  34.823  1.00  0.00     0.344 A 
ATOM      5  O   UNL     1      28.473   8.402  35.339  1.00  0.00    -0.422 OA
ATOM      6  C   UNL     1      29.241   7.303  34.931  1.00  0.00     0.142 A 
ATOM      7  C   UNL     1      30.610   8.821  33.592  1.00  0.00     0.138 A 
ATOM      8  C   UNL     1      28.871   6.056  35.436  1.00  0.00     0.048 A 
ATOM      9  C   UNL     1      30.297   7.462  34.041  1.00  0.00     0.060 A 
ATOM     10  C   UNL     1      29.566   4.923  35.026  1.00  0.00     0.004 A 
ATOM     11  C   UNL     1      30.970   6.308  33.616  1.00  0.00     0.016 A 
ATOM     12  C   UNL     1      30.611   5.048  34.110  1.00  0.00     0.001 A 
BRANCH   7  13
ATOM     13  O   UNL     1      31.742   8.990  32.817  1.00  0.00    -0.507 OA
ATOM     14  H   UNL     1      32.233   9.760  33.148  1.00  0.00     0.293 HD
ENDBRANCH   7  13
ENDBRANCH   1   2
BRANCH   1  15
ATOM     15  C   UNL     1      30.898  12.156  34.471  1.00  0.00    -0.035 A 
ATOM     16  C   UNL     1      32.036  11.633  35.112  1.00  0.00     0.005 A 
ATOM     17  C   UNL     1      30.484  13.455  34.810  1.00  0.00     0.005 A 
ATOM     18  C   UNL     1      32.746  12.391  36.047  1.00  0.00     0.000 A 
ATOM     19  C   UNL     1      31.194  14.210  35.747  1.00  0.00     0.000 A 
ATOM     20  C   UNL     1      32.324  13.680  36.362  1.00  0.00     0.000 A 
ENDBRANCH   1  15
BRANCH   1  21
ATOM     21  C   UNL     1      30.610  11.401  31.980  1.00  0.00     0.092 A 
ATOM     22  C   UNL     1      31.703  12.117  31.647  1.00  0.00     0.138 A 
ATOM     23  C   UNL     1      29.854  10.682  30.915  1.00  0.00     0.344 A 
ATOM     24  C   UNL     1      32.151  12.256  30.259  1.00  0.00     0.060 A 
ATOM     25  O   UNL     1      30.392  10.709  29.631  1.00  0.00    -0.422 OA
ATOM     26  O   UNL     1      28.828  10.045  31.115  1.00  0.00    -0.246 OA
ATOM     27  C   UNL     1      33.187  13.101  29.835  1.00  0.00     0.016 A 
ATOM     28  C   UNL     1      31.488  11.514  29.291  1.00  0.00     0.142 A 
ATOM     29  C   UNL     1      33.559  13.154  28.485  1.00  0.00     0.001 A 
ATOM     30  C   UNL     1      31.846  11.553  27.943  1.00  0.00     0.048 A 
ATOM     31  C   UNL     1      32.894  12.374  27.542  1.00  0.00     0.004 A 
BRANCH  22  32
ATOM     32  O   UNL     1      32.453  12.751  32.623  1.00  0.00    -0.507 OA
ATOM     33  H   UNL     1      31.923  13.474  32.999  1.00  0.00     0.293 HD
ENDBRANCH  22  32
ENDBRANCH   1  21
TORSDOF 5
ENDMDL
MODEL 8
REMARK VINA RESULT:    -8.071     15.382     18.911
REMARK INTER + INTRA:         -10.209
REMARK INTER:                 -11.577
REMARK INTRA:                   1.368
REMARK UNBOUND:                -0.251
REMARK SMILES O=c1oc2ccccc2c(O)c1C(c1ccccc1)c1c(O)c2ccccc2oc1=O
REMARK SMILES IDX 13 1 12 2 1 3 2 4 3 5 4 6 10 7 5 8 9 9 6 10 8 11 7 12 11 13
REMARK SMILES IDX 14 15 15 16 19 17 16 18 18 19 17 20 20 21 21 22 30 23 23 24
REMARK SMILES IDX 29 25 31 26 24 27 28 28 25 29 27 30 26 31 22 32
REMARK H PARENT 11 14 22 33
ROOT
ATOM      1  C   UNL     1      30.817  11.443  33.950  1.00  0.00     0.102 C 
ENDROOT
BRANCH   1   2
ATOM      2  C   UNL     1      31.079  11.597  32.447  1.00  0.00     0.092 A 
ATOM      3  O   UNL     1      29.182  10.283  31.854  1.00  0.00    -0.246 OA
ATOM      4  C   UNL     1      30.169  10.914  31.494  1.00  0.00     0.344 A 
ATOM      5  O   UNL     1      30.488  10.974  30.143  1.00  0.00    -0.422 OA
ATOM      6  C   UNL     1      31.547  11.758  29.662  1.00  0.00     0.142 A 
ATOM      7  C   UNL     1      32.134  12.291  31.973  1.00  0.00     0.138 A 
ATOM      8  C   UNL     1      31.700  11.824  28.276  1.00  0.00     0.048 A 
ATOM      9  C   UNL     1      32.373  12.452  30.537  1.00  0.00     0.060 A 
ATOM     10  C   UNL     1      32.702  12.627  27.742  1.00  0.00     0.004 A 
ATOM     11  C   UNL     1      33.361  13.278  29.982  1.00  0.00     0.016 A 
ATOM     12  C   UNL     1      33.528  13.360  28.594  1.00  0.00     0.001 A 
BRANCH   7  13
ATOM     13  O   UNL     1      33.040  12.874  32.839  1.00  0.00    -0.507 OA
ATOM     14  H   UNL     1      32.644  13.680  33.208  1.00  0.00     0.293 HD
ENDBRANCH   7  13
ENDBRANCH   1   2
BRANCH   1  15
ATOM     15  C   UNL     1      30.295  12.719  34.625  1.00  0.00    -0.035 A 
ATOM     16  C   UNL     1      30.988  13.247  35.731  1.00  0.00     0.005 A 
ATOM     17  C   UNL     1      29.141  13.388  34.186  1.00  0.00     0.005 A 
ATOM     18  C   UNL     1      30.551  14.414  36.362  1.00  0.00     0.000 A 
ATOM     19  C   UNL     1      28.704  14.553  34.820  1.00  0.00     0.000 A 
ATOM     20  C   UNL     1      29.410  15.067  35.905  1.00  0.00     0.000 A 
ENDBRANCH   1  15
BRANCH   1  21
ATOM     21  C   UNL     1      30.176  10.116  34.366  1.00  0.00     0.092 A 
ATOM     22  C   UNL     1      30.817   8.947  34.167  1.00  0.00     0.138 A 
ATOM     23  C   UNL     1      28.837  10.114  35.022  1.00  0.00     0.344 A 
ATOM     24  C   UNL     1      30.222   7.659  34.531  1.00  0.00     0.060 A 
ATOM     25  O   UNL     1      28.368   8.891  35.494  1.00  0.00    -0.422 OA
ATOM     26  O   UNL     1      28.162  11.118  35.204  1.00  0.00    -0.246 OA
ATOM     27  C   UNL     1      30.773   6.407  34.219  1.00  0.00     0.016 A 
ATOM     28  C   UNL     1      29.015   7.678  35.217  1.00  0.00     0.142 A 
ATOM     29  C   UNL     1      30.140   5.226  34.627  1.00  0.00     0.001 A 
ATOM     30  C   UNL     1      28.371   6.512  35.632  1.00  0.00     0.048 A 
ATOM     31  C   UNL     1      28.944   5.279  35.340  1.00  0.00     0.004 A 
BRANCH  22  32
ATOM     32  O   UNL     1      32.084   8.926  33.608  1.00  0.00    -0.507 OA
ATOM     33  H   UNL     1      32.739   8.965  34.325  1.00  0.00     0.293 HD
ENDBRANCH  22  32
ENDBRANCH   1  21
TORSDOF 5
ENDMDL
MODEL 9
REMARK VINA RESULT:    -8.022      0.754      2.038
REMARK INTER + INTRA:         -10.149
REMARK INTER:                 -10.548
REMARK INTRA:                   0.399
REMARK UNBOUND:                -0.251
REMARK SMILES O=c1oc2ccccc2c(O)c1C(c1ccccc1)c1c(O)c2ccccc2oc1=O
REMARK SMILES IDX 13 1 12 2 1 3 2 4 3 5 4 6 10 7 5 8 9 9 6 10 8 11 7 12 11 13
REMARK SMILES IDX 14 15 15 16 19 17 16 18 18 19 17 20 20 21 21 22 30 23 23 24
REMARK SMILES IDX 29 25 31 26 24 27 28 28 25 29 27 30 26 31 22 32
REMARK H PARENT 11 14 22 33
ROOT
ATOM      1  C   UNL     1      31.469  11.456  14.369  1.00  0.00     0.102 C 
ENDROOT
BRANCH   1   2
ATOM      2  C   UNL     1      32.475  10.356  14.728  1.00  0.00     0.092 A 
ATOM      3  O   UNL     1      30.838   8.632  14.571  1.00  0.00    -0.246 OA
ATOM      4  C   UNL     1      31.992   8.956  14.825  1.00  0.00     0.344 A 
ATOM      5  O   UNL     1      32.894   7.992  15.260  1.00  0.00    -0.422 OA
ATOM      6  C   UNL     1      34.249   8.283  15.474  1.00  0.00     0.142 A 
ATOM      7  C   UNL     1      33.766  10.631  15.003  1.00  0.00     0.138 A 
ATOM      8  C   UNL     1      35.077   7.209  15.802  1.00  0.00     0.048 A 
ATOM      9  C   UNL     1      34.731   9.579  15.329  1.00  0.00     0.060 A 
ATOM     10  C   UNL     1      36.439   7.430  15.976  1.00  0.00     0.004 A 
ATOM     11  C   UNL     1      36.110   9.780  15.481  1.00  0.00     0.016 A 
ATOM     12  C   UNL     1      36.957   8.714  15.808  1.00  0.00     0.001 A 
BRANCH   7  13
ATOM     13  O   UNL     1      34.226  11.935  14.995  1.00  0.00    -0.507 OA
ATOM     14  H   UNL     1      33.792  12.423  15.714  1.00  0.00     0.293 HD
ENDBRANCH   7  13
ENDBRANCH   1   2
BRANCH   1  15
ATOM     15  C   UNL     1      30.373  11.003  13.394  1.00  0.00    -0.035 A 
ATOM     16  C   UNL     1      29.026  11.048  13.800  1.00  0.00     0.005 A 
ATOM     17  C   UNL     1      30.659  10.537  12.100  1.00  0.00     0.005 A 
ATOM     18  C   UNL     1      28.001  10.657  12.936  1.00  0.00     0.000 A 
ATOM     19  C   UNL     1      29.632  10.144  11.238  1.00  0.00     0.000 A 
ATOM     20  C   UNL     1      28.305  10.207  11.653  1.00  0.00     0.000 A 
ENDBRANCH   1  15
BRANCH   1  21
ATOM     21  C   UNL     1      31.045  12.356  15.533  1.00  0.00     0.092 A 
ATOM     22  C   UNL     1      31.270  13.684  15.496  1.00  0.00     0.138 A 
ATOM     23  C   UNL     1      30.353  11.763  16.712  1.00  0.00     0.344 A 
ATOM     24  C   UNL     1      30.898  14.569  16.603  1.00  0.00     0.060 A 
ATOM     25  O   UNL     1      29.877  12.649  17.676  1.00  0.00    -0.422 OA
ATOM     26  O   UNL     1      30.145  10.565  16.854  1.00  0.00    -0.246 OA
ATOM     27  C   UNL     1      31.235  15.928  16.687  1.00  0.00     0.016 A 
ATOM     28  C   UNL     1      30.180  14.017  17.655  1.00  0.00     0.142 A 
ATOM     29  C   UNL     1      30.819  16.702  17.778  1.00  0.00     0.001 A 
ATOM     30  C   UNL     1      29.755  14.773  18.749  1.00  0.00     0.048 A 
ATOM     31  C   UNL     1      30.072  16.125  18.804  1.00  0.00     0.004 A 
BRANCH  22  32
ATOM     32  O   UNL     1      31.863  14.267  14.389  1.00  0.00    -0.507 OA
ATOM     33  H   UNL     1      31.194  14.795  13.922  1.00  0.00     0.293 HD
ENDBRANCH  22  32
ENDBRANCH   1  21
TORSDOF 5
ENDMDL
MODEL 10
REMARK VINA RESULT:    -7.997      3.249      7.601
REMARK INTER + INTRA:         -10.117
REMARK INTER:                 -10.173
REMARK INTRA:                   0.055
REMARK UNBOUND:                -0.251
REMARK SMILES O=c1oc2ccccc2c(O)c1C(c1ccccc1)c1c(O)c2ccccc2oc1=O
REMARK SMILES IDX 13 1 12 2 1 3 2 4 3 5 4 6 10 7 5 8 9 9 6 10 8 11 7 12 11 13
REMARK SMILES IDX 14 15 15 16 19 17 16 18 18 19 17 20 20 21 21 22 30 23 23 24
REMARK SMILES IDX 29 25 31 26 24 27 28 28 25 29 27 30 26 31 22 32
REMARK H PARENT 11 14 22 33
ROOT
ATOM      1  C   UNL     1      30.137  14.884  16.105  1.00  0.00     0.102 C 
ENDROOT
BRANCH   1   2
ATOM      2  C   UNL     1      29.885  15.262  17.570  1.00  0.00     0.092 A 
ATOM      3  O   UNL     1      29.090  13.086  18.126  1.00  0.00    -0.246 OA
ATOM      4  C   UNL     1      29.313  14.239  18.479  1.00  0.00     0.344 A 
ATOM      5  O   UNL     1      28.990  14.633  19.771  1.00  0.00    -0.422 OA
ATOM      6  C   UNL     1      29.309  15.907  20.262  1.00  0.00     0.142 A 
ATOM      7  C   UNL     1      30.124  16.504  18.037  1.00  0.00     0.138 A 
ATOM      8  C   UNL     1      29.033  16.148  21.609  1.00  0.00     0.048 A 
ATOM      9  C   UNL     1      29.900  16.860  19.440  1.00  0.00     0.060 A 
ATOM     10  C   UNL     1      29.374  17.378  22.163  1.00  0.00     0.004 A 
ATOM     11  C   UNL     1      30.263  18.084  20.020  1.00  0.00     0.016 A 
ATOM     12  C   UNL     1      29.997  18.343  21.370  1.00  0.00     0.001 A 
BRANCH   7  13
ATOM     13  O   UNL     1      30.585  17.498  17.195  1.00  0.00    -0.507 OA
ATOM     14  H   UNL     1      30.409  17.235  16.277  1.00  0.00     0.293 HD
ENDBRANCH   7  13
ENDBRANCH   1   2
BRANCH   1  15
ATOM     15  C   UNL     1      31.539  14.318  15.840  1.00  0.00    -0.035 A 
ATOM     16  C   UNL     1      32.021  14.261  14.518  1.00  0.00     0.005 A 
ATOM     17  C   UNL     1      32.369  13.845  16.869  1.00  0.00     0.005 A 
ATOM     18  C   UNL     1      33.297  13.765  14.240  1.00  0.00     0.000 A 
ATOM     19  C   UNL     1      33.644  13.347  16.588  1.00  0.00     0.000 A 
ATOM     20  C   UNL     1      34.108  13.310  15.276  1.00  0.00     0.000 A 
ENDBRANCH   1  15
BRANCH   1  21
ATOM     21  C   UNL     1      28.960  14.206  15.397  1.00  0.00     0.092 A 
ATOM     22  C   UNL     1      28.953  12.874  15.188  1.00  0.00     0.138 A 
ATOM     23  C   UNL     1      27.795  15.023  14.952  1.00  0.00     0.344 A 
ATOM     24  C   UNL     1      27.854  12.200  14.493  1.00  0.00     0.060 A 
ATOM     25  O   UNL     1      26.702  14.333  14.434  1.00  0.00    -0.422 OA
ATOM     26  O   UNL     1      27.731  16.241  15.058  1.00  0.00    -0.246 OA
ATOM     27  C   UNL     1      27.857  10.847  14.119  1.00  0.00     0.016 A 
ATOM     28  C   UNL     1      26.740  12.958  14.161  1.00  0.00     0.142 A 
ATOM     29  C   UNL     1      26.749  10.284  13.472  1.00  0.00     0.001 A 
ATOM     30  C   UNL     1      25.628  12.413  13.519  1.00  0.00     0.048 A 
ATOM     31  C   UNL     1      25.633  11.065  13.180  1.00  0.00     0.004 A 
BRANCH  22  32
ATOM     32  O   UNL     1      29.999  12.087  15.639  1.00  0.00    -0.507 OA
ATOM     33  H   UNL     1      30.701  12.092  14.966  1.00  0.00     0.293 HD
ENDBRANCH  22  32
ENDBRANCH   1  21
TORSDOF 5
ENDMDL
MODEL 11
REMARK VINA RESULT:    -7.965      2.124      7.415
REMARK INTER + INTRA:         -10.078
REMARK INTER:                 -10.258
REMARK INTRA:                   0.180
REMARK UNBOUND:                -0.251
REMARK SMILES O=c1oc2ccccc2c(O)c1C(c1ccccc1)c1c(O)c2ccccc2oc1=O
REMARK SMILES IDX 13 1 12 2 1 3 2 4 3 5 4 6 10 7 5 8 9 9 6 10 8 11 7 12 11 13
REMARK SMILES IDX 14 15 15 16 19 17 16 18 18 19 17 20 20 21 21 22 30 23 23 24
REMARK SMILES IDX 29 25 31 26 24 27 28 28 25 29 27 30 26 31 22 32
REMARK H PARENT 11 14 22 33
ROOT
ATOM      1  C   UNL     1      31.586  13.391  15.344  1.00  0.00     0.102 C 
ENDROOT
BRANCH   1   2
ATOM      2  C   UNL     1      30.776  14.126  16.418  1.00  0.00     0.092 A 
ATOM      3  O   UNL     1      31.230  12.472  18.072  1.00  0.00    -0.246 OA
ATOM      4  C   UNL     1      30.658  13.512  17.763  1.00  0.00     0.344 A 
ATOM      5  O   UNL     1      29.830  14.136  18.688  1.00  0.00    -0.422 OA
ATOM      6  C   UNL     1      29.225  15.375  18.428  1.00  0.00     0.142 A 
ATOM      7  C   UNL     1      30.133  15.283  16.161  1.00  0.00     0.138 A 
ATOM      8  C   UNL     1      28.506  15.954  19.474  1.00  0.00     0.048 A 
ATOM      9  C   UNL     1      29.374  15.994  17.192  1.00  0.00     0.060 A 
ATOM     10  C   UNL     1      27.927  17.205  19.288  1.00  0.00     0.004 A 
ATOM     11  C   UNL     1      28.808  17.267  17.030  1.00  0.00     0.016 A 
ATOM     12  C   UNL     1      28.085  17.865  18.070  1.00  0.00     0.001 A 
BRANCH   7  13
ATOM     13  O   UNL     1      30.163  15.840  14.896  1.00  0.00    -0.507 OA
ATOM     14  H   UNL     1      31.078  16.085  14.685  1.00  0.00     0.293 HD
ENDBRANCH   7  13
ENDBRANCH   1   2
BRANCH   1  15
ATOM     15  C   UNL     1      32.875  12.744  15.870  1.00  0.00    -0.035 A 
ATOM     16  C   UNL     1      33.845  13.549  16.497  1.00  0.00     0.005 A 
ATOM     17  C   UNL     1      33.133  11.369  15.747  1.00  0.00     0.005 A 
ATOM     18  C   UNL     1      35.023  12.993  17.000  1.00  0.00     0.000 A 
ATOM     19  C   UNL     1      34.314  10.815  16.249  1.00  0.00     0.000 A 
ATOM     20  C   UNL     1      35.256  11.626  16.877  1.00  0.00     0.000 A 
ENDBRANCH   1  15
BRANCH   1  21
ATOM     21  C   UNL     1      30.756  12.587  14.339  1.00  0.00     0.092 A 
ATOM     22  C   UNL     1      29.924  11.611  14.755  1.00  0.00     0.138 A 
ATOM     23  C   UNL     1      30.847  12.900  12.885  1.00  0.00     0.344 A 
ATOM     24  C   UNL     1      29.134  10.808  13.818  1.00  0.00     0.060 A 
ATOM     25  O   UNL     1      29.972  12.225  12.038  1.00  0.00    -0.422 OA
ATOM     26  O   UNL     1      31.605  13.737  12.410  1.00  0.00    -0.246 OA
ATOM     27  C   UNL     1      28.366   9.689  14.175  1.00  0.00     0.016 A 
ATOM     28  C   UNL     1      29.165  11.166  12.477  1.00  0.00     0.142 A 
ATOM     29  C   UNL     1      27.627   8.993  13.210  1.00  0.00     0.001 A 
ATOM     30  C   UNL     1      28.434  10.486  11.503  1.00  0.00     0.048 A 
ATOM     31  C   UNL     1      27.655   9.396  11.876  1.00  0.00     0.004 A 
BRANCH  22  32
ATOM     32  O   UNL     1      29.781  11.336  16.104  1.00  0.00    -0.507 OA
ATOM     33  H   UNL     1      28.851  11.473  16.351  1.00  0.00     0.293 HD
ENDBRANCH  22  32
ENDBRANCH   1  21
TORSDOF 5
ENDMDL
MODEL 12
REMARK VINA RESULT:    -7.870      3.307      7.536
REMARK INTER + INTRA:          -9.961
REMARK INTER:                  -9.696
REMARK INTRA:                  -0.266
REMARK UNBOUND:                -0.251
REMARK SMILES O=c1oc2ccccc2c(O)c1C(c1ccccc1)c1c(O)c2ccccc2oc1=O
REMARK SMILES IDX 13 1 12 2 1 3 2 4 3 5 4 6 10 7 5 8 9 9 6 10 8 11 7 12 11 13
REMARK SMILES IDX 14 15 15 16 19 17 16 18 18 19 17 20 20 21 21 22 30 23 23 24
REMARK SMILES IDX 29 25 31 26 24 27 28 28 25 29 27 30 26 31 22 32
REMARK H PARENT 11 14 22 33
ROOT
ATOM      1  C   UNL     1      29.842  14.233  15.477  1.00  0.00     0.102 C 
ENDROOT
BRANCH   1   2
ATOM      2  C   UNL     1      29.093  14.980  16.587  1.00  0.00     0.092 A 
ATOM      3  O   UNL     1      29.016  17.009  15.341  1.00  0.00    -0.246 OA
ATOM      4  C   UNL     1      28.767  16.413  16.383  1.00  0.00     0.344 A 
ATOM      5  O   UNL     1      28.188  17.101  17.443  1.00  0.00    -0.422 OA
ATOM      6  C   UNL     1      27.793  16.453  18.622  1.00  0.00     0.142 A 
ATOM      7  C   UNL     1      28.768  14.388  17.754  1.00  0.00     0.138 A 
ATOM      8  C   UNL     1      27.123  17.229  19.569  1.00  0.00     0.048 A 
ATOM      9  C   UNL     1      28.037  15.098  18.806  1.00  0.00     0.060 A 
ATOM     10  C   UNL     1      26.664  16.628  20.737  1.00  0.00     0.004 A 
ATOM     11  C   UNL     1      27.544  14.501  19.975  1.00  0.00     0.016 A 
ATOM     12  C   UNL     1      26.867  15.262  20.936  1.00  0.00     0.001 A 
BRANCH   7  13
ATOM     13  O   UNL     1      29.126  13.076  18.002  1.00  0.00    -0.507 OA
ATOM     14  H   UNL     1      28.664  12.502  17.369  1.00  0.00     0.293 HD
ENDBRANCH   7  13
ENDBRANCH   1   2
BRANCH   1  15
ATOM     15  C   UNL     1      31.370  14.285  15.612  1.00  0.00    -0.035 A 
ATOM     16  C   UNL     1      32.172  13.939  14.508  1.00  0.00     0.005 A 
ATOM     17  C   UNL     1      32.010  14.665  16.803  1.00  0.00     0.005 A 
ATOM     18  C   UNL     1      33.566  13.988  14.589  1.00  0.00     0.000 A 
ATOM     19  C   UNL     1      33.404  14.712  16.882  1.00  0.00     0.000 A 
ATOM     20  C   UNL     1      34.181  14.377  15.776  1.00  0.00     0.000 A 
ENDBRANCH   1  15
BRANCH   1  21
ATOM     21  C   UNL     1      29.219  12.898  15.058  1.00  0.00     0.092 A 
ATOM     22  C   UNL     1      28.128  12.863  14.267  1.00  0.00     0.138 A 
ATOM     23  C   UNL     1      29.839  11.619  15.507  1.00  0.00     0.344 A 
ATOM     24  C   UNL     1      27.495  11.603  13.867  1.00  0.00     0.060 A 
ATOM     25  O   UNL     1      29.306  10.442  14.986  1.00  0.00    -0.422 OA
ATOM     26  O   UNL     1      30.801  11.551  16.260  1.00  0.00    -0.246 OA
ATOM     27  C   UNL     1      26.281  11.506  13.171  1.00  0.00     0.016 A 
ATOM     28  C   UNL     1      28.130  10.422  14.223  1.00  0.00     0.142 A 
ATOM     29  C   UNL     1      25.760  10.255  12.814  1.00  0.00     0.001 A 
ATOM     30  C   UNL     1      27.628   9.168  13.874  1.00  0.00     0.048 A 
ATOM     31  C   UNL     1      26.438   9.087  13.159  1.00  0.00     0.004 A 
BRANCH  22  32
ATOM     32  O   UNL     1      27.565  14.035  13.793  1.00  0.00    -0.507 OA
ATOM     33  H   UNL     1      26.621  13.877  13.621  1.00  0.00     0.293 HD
ENDBRANCH  22  32
ENDBRANCH   1  21
TORSDOF 5
ENDMDL
MODEL 13
REMARK VINA RESULT:    -7.865      1.951      3.165
REMARK INTER + INTRA:          -9.954
REMARK INTER:                 -10.126
REMARK INTRA:                   0.171
REMARK UNBOUND:                -0.251
REMARK SMILES O=c1oc2ccccc2c(O)c1C(c1ccccc1)c1c(O)c2ccccc2oc1=O
REMARK SMILES IDX 13 1 12 2 1 3 2 4 3 5 4 6 10 7 5 8 9 9 6 10 8 11 7 12 11 13
REMARK SMILES IDX 14 15 15 16 19 17 16 18 18 19 17 20 20 21 21 22 30 23 23 24
REMARK SMILES IDX 29 25 31 26 24 27 28 28 25 29 27 30 26 31 22 32
REMARK H PARENT 11 14 22 33
ROOT
ATOM      1  C   UNL     1      31.501  13.756  14.908  1.00  0.00     0.102 C 
ENDROOT
BRANCH   1   2
ATOM      2  C   UNL     1      32.008  12.309  14.945  1.00  0.00     0.092 A 
ATOM      3  O   UNL     1      29.951  11.436  14.117  1.00  0.00    -0.246 OA
ATOM      4  C   UNL     1      31.083  11.223  14.538  1.00  0.00     0.344 A 
ATOM      5  O   UNL     1      31.523   9.913  14.684  1.00  0.00    -0.422 OA
ATOM      6  C   UNL     1      32.836   9.608  15.069  1.00  0.00     0.142 A 
ATOM      7  C   UNL     1      33.246  11.997  15.378  1.00  0.00     0.138 A 
ATOM      8  C   UNL     1      33.192   8.258  15.073  1.00  0.00     0.048 A 
ATOM      9  C   UNL     1      33.735  10.617  15.396  1.00  0.00     0.060 A 
ATOM     10  C   UNL     1      34.496   7.901  15.399  1.00  0.00     0.004 A 
ATOM     11  C   UNL     1      35.053  10.242  15.695  1.00  0.00     0.016 A 
ATOM     12  C   UNL     1      35.428   8.893  15.702  1.00  0.00     0.001 A 
BRANCH   7  13
ATOM     13  O   UNL     1      34.102  12.981  15.835  1.00  0.00    -0.507 OA
ATOM     14  H   UNL     1      33.641  13.835  15.801  1.00  0.00     0.293 HD
ENDBRANCH   7  13
ENDBRANCH   1   2
BRANCH   1  15
ATOM     15  C   UNL     1      30.664  14.092  13.666  1.00  0.00    -0.035 A 
ATOM     16  C   UNL     1      31.163  13.770  12.390  1.00  0.00     0.005 A 
ATOM     17  C   UNL     1      29.410  14.718  13.748  1.00  0.00     0.005 A 
ATOM     18  C   UNL     1      30.424  14.048  11.238  1.00  0.00     0.000 A 
ATOM     19  C   UNL     1      28.673  14.998  12.594  1.00  0.00     0.000 A 
ATOM     20  C   UNL     1      29.178  14.660  11.341  1.00  0.00     0.000 A 
ENDBRANCH   1  15
BRANCH   1  21
ATOM     21  C   UNL     1      31.018  14.310  16.252  1.00  0.00     0.092 A 
ATOM     22  C   UNL     1      29.860  13.886  16.798  1.00  0.00     0.138 A 
ATOM     23  C   UNL     1      31.846  15.313  16.980  1.00  0.00     0.344 A 
ATOM     24  C   UNL     1      29.358  14.414  18.069  1.00  0.00     0.060 A 
ATOM     25  O   UNL     1      31.419  15.679  18.254  1.00  0.00    -0.422 OA
ATOM     26  O   UNL     1      32.887  15.789  16.544  1.00  0.00    -0.246 OA
ATOM     27  C   UNL     1      28.099  14.122  18.613  1.00  0.00     0.016 A 
ATOM     28  C   UNL     1      30.180  15.282  18.775  1.00  0.00     0.142 A 
ATOM     29  C   UNL     1      27.712  14.660  19.848  1.00  0.00     0.001 A 
ATOM     30  C   UNL     1      29.812  15.826  20.006  1.00  0.00     0.048 A 
ATOM     31  C   UNL     1      28.572  15.505  20.547  1.00  0.00     0.004 A 
BRANCH  22  32
ATOM     32  O   UNL     1      29.099  12.918  16.167  1.00  0.00    -0.507 OA
ATOM     33  H   UNL     1      28.203  13.270  16.030  1.00  0.00     0.293 HD
ENDBRANCH  22  32
ENDBRANCH   1  21
TORSDOF 5
ENDMDL
MODEL 14
REMARK VINA RESULT:    -7.857      3.813      6.298
REMARK INTER + INTRA:          -9.945
REMARK INTER:                  -9.795
REMARK INTRA:                  -0.150
REMARK UNBOUND:                -0.251
REMARK SMILES O=c1oc2ccccc2c(O)c1C(c1ccccc1)c1c(O)c2ccccc2oc1=O
REMARK SMILES IDX 13 1 12 2 1 3 2 4 3 5 4 6 10 7 5 8 9 9 6 10 8 11 7 12 11 13
REMARK SMILES IDX 14 15 15 16 19 17 16 18 18 19 17 20 20 21 21 22 30 23 23 24
REMARK SMILES IDX 29 25 31 26 24 27 28 28 25 29 27 30 26 31 22 32
REMARK H PARENT 11 14 22 33
ROOT
ATOM      1  C   UNL     1      28.161  13.739  12.852  1.00  0.00     0.102 C 
ENDROOT
BRANCH   1   2
ATOM      2  C   UNL     1      27.573  12.322  12.809  1.00  0.00     0.092 A 
ATOM      3  O   UNL     1      29.219  11.552  11.268  1.00  0.00    -0.246 OA
ATOM      4  C   UNL     1      28.209  11.318  11.921  1.00  0.00     0.344 A 
ATOM      5  O   UNL     1      27.596  10.075  11.811  1.00  0.00    -0.422 OA
ATOM      6  C   UNL     1      26.496   9.716  12.603  1.00  0.00     0.142 A 
ATOM      7  C   UNL     1      26.475  11.983  13.513  1.00  0.00     0.138 A 
ATOM      8  C   UNL     1      26.037   8.403  12.481  1.00  0.00     0.048 A 
ATOM      9  C   UNL     1      25.925  10.626  13.485  1.00  0.00     0.060 A 
ATOM     10  C   UNL     1      24.981   7.976  13.279  1.00  0.00     0.004 A 
ATOM     11  C   UNL     1      24.879  10.173  14.301  1.00  0.00     0.016 A 
ATOM     12  C   UNL     1      24.407   8.859  14.195  1.00  0.00     0.001 A 
BRANCH   7  13
ATOM     13  O   UNL     1      25.818  12.920  14.289  1.00  0.00    -0.507 OA
ATOM     14  H   UNL     1      25.274  12.454  14.945  1.00  0.00     0.293 HD
ENDBRANCH   7  13
ENDBRANCH   1   2
BRANCH   1  15
ATOM     15  C   UNL     1      27.125  14.850  12.631  1.00  0.00    -0.035 A 
ATOM     16  C   UNL     1      25.959  14.569  11.895  1.00  0.00     0.005 A 
ATOM     17  C   UNL     1      27.295  16.150  13.134  1.00  0.00     0.005 A 
ATOM     18  C   UNL     1      24.988  15.552  11.685  1.00  0.00     0.000 A 
ATOM     19  C   UNL     1      26.324  17.132  12.921  1.00  0.00     0.000 A 
ATOM     20  C   UNL     1      25.171  16.832  12.200  1.00  0.00     0.000 A 
ENDBRANCH   1  15
BRANCH   1  21
ATOM     21  C   UNL     1      29.220  13.970  13.934  1.00  0.00     0.092 A 
ATOM     22  C   UNL     1      30.533  13.943  13.632  1.00  0.00     0.138 A 
ATOM     23  C   UNL     1      28.797  14.254  15.335  1.00  0.00     0.344 A 
ATOM     24  C   UNL     1      31.571  14.137  14.648  1.00  0.00     0.060 A 
ATOM     25  O   UNL     1      29.800  14.585  16.242  1.00  0.00    -0.422 OA
ATOM     26  O   UNL     1      27.632  14.256  15.712  1.00  0.00    -0.246 OA
ATOM     27  C   UNL     1      32.947  13.977  14.424  1.00  0.00     0.016 A 
ATOM     28  C   UNL     1      31.162  14.484  15.928  1.00  0.00     0.142 A 
ATOM     29  C   UNL     1      33.869  14.203  15.455  1.00  0.00     0.001 A 
ATOM     30  C   UNL     1      32.066  14.715  16.966  1.00  0.00     0.048 A 
ATOM     31  C   UNL     1      33.428  14.580  16.722  1.00  0.00     0.004 A 
BRANCH  22  32
ATOM     32  O   UNL     1      30.951  13.734  12.329  1.00  0.00    -0.507 OA
ATOM     33  H   UNL     1      31.923  13.700  12.317  1.00  0.00     0.293 HD
ENDBRANCH  22  32
ENDBRANCH   1  21
TORSDOF 5
ENDMDL
MODEL 15
REMARK VINA RESULT:    -7.848      3.197      7.344
REMARK INTER + INTRA:          -9.934
REMARK INTER:                  -9.969
REMARK INTRA:                   0.035
REMARK UNBOUND:                -0.251
REMARK SMILES O=c1oc2ccccc2c(O)c1C(c1ccccc1)c1c(O)c2ccccc2oc1=O
REMARK SMILES IDX 13 1 12 2 1 3 2 4 3 5 4 6 10 7 5 8 9 9 6 10 8 11 7 12 11 13
REMARK SMILES IDX 14 15 15 16 19 17 16 18 18 19 17 20 20 21 21 22 30 23 23 24
REMARK SMILES IDX 29 25 31 26 24 27 28 28 25 29 27 30 26 31 22 32
REMARK H PARENT 11 14 22 33
ROOT
ATOM      1  C   UNL     1      29.369  13.134  14.916  1.00  0.00     0.102 C 
ENDROOT
BRANCH   1   2
ATOM      2  C   UNL     1      29.059  13.735  16.293  1.00  0.00     0.092 A 
ATOM      3  O   UNL     1      29.997  11.877  17.453  1.00  0.00    -0.246 OA
ATOM      4  C   UNL     1      29.413  12.954  17.504  1.00  0.00     0.344 A 
ATOM      5  O   UNL     1      29.025  13.464  18.737  1.00  0.00    -0.422 OA
ATOM      6  C   UNL     1      28.441  14.732  18.866  1.00  0.00     0.142 A 
ATOM      7  C   UNL     1      28.436  14.923  16.430  1.00  0.00     0.138 A 
ATOM      8  C   UNL     1      28.195  15.181  20.165  1.00  0.00     0.048 A 
ATOM      9  C   UNL     1      28.156  15.504  17.745  1.00  0.00     0.060 A 
ATOM     10  C   UNL     1      27.663  16.452  20.355  1.00  0.00     0.004 A 
ATOM     11  C   UNL     1      27.646  16.793  17.955  1.00  0.00     0.016 A 
ATOM     12  C   UNL     1      27.396  17.261  19.251  1.00  0.00     0.001 A 
BRANCH   7  13
ATOM     13  O   UNL     1      28.027  15.636  15.319  1.00  0.00    -0.507 OA
ATOM     14  H   UNL     1      27.345  15.124  14.854  1.00  0.00     0.293 HD
ENDBRANCH   7  13
ENDBRANCH   1   2
BRANCH   1  15
ATOM     15  C   UNL     1      30.850  13.213  14.521  1.00  0.00    -0.035 A 
ATOM     16  C   UNL     1      31.221  12.972  13.185  1.00  0.00     0.005 A 
ATOM     17  C   UNL     1      31.863  13.516  15.446  1.00  0.00     0.005 A 
ATOM     18  C   UNL     1      32.558  13.048  12.785  1.00  0.00     0.000 A 
ATOM     19  C   UNL     1      33.199  13.590  15.044  1.00  0.00     0.000 A 
ATOM     20  C   UNL     1      33.546  13.359  13.716  1.00  0.00     0.000 A 
ENDBRANCH   1  15
BRANCH   1  21
ATOM     21  C   UNL     1      28.623  11.838  14.590  1.00  0.00     0.092 A 
ATOM     22  C   UNL     1      27.334  11.863  14.194  1.00  0.00     0.138 A 
ATOM     23  C   UNL     1      29.334  10.531  14.686  1.00  0.00     0.344 A 
ATOM     24  C   UNL     1      26.586  10.639  13.897  1.00  0.00     0.060 A 
ATOM     25  O   UNL     1      28.642   9.403  14.250  1.00  0.00    -0.422 OA
ATOM     26  O   UNL     1      30.487  10.405  15.077  1.00  0.00    -0.246 OA
ATOM     27  C   UNL     1      25.211  10.591  13.623  1.00  0.00     0.016 A 
ATOM     28  C   UNL     1      27.283   9.439  13.909  1.00  0.00     0.142 A 
ATOM     29  C   UNL     1      24.583   9.373  13.332  1.00  0.00     0.001 A 
ATOM     30  C   UNL     1      26.675   8.217  13.618  1.00  0.00     0.048 A 
ATOM     31  C   UNL     1      25.317   8.188  13.321  1.00  0.00     0.004 A 
BRANCH  22  32
ATOM     32  O   UNL     1      26.668  13.067  14.046  1.00  0.00    -0.507 OA
ATOM     33  H   UNL     1      25.827  13.016  14.532  1.00  0.00     0.293 HD
ENDBRANCH  22  32
ENDBRANCH   1  21
TORSDOF 5
ENDMDL
MODEL 16
REMARK VINA RESULT:    -7.823      3.304      7.175
REMARK INTER + INTRA:          -9.903
REMARK INTER:                  -9.574
REMARK INTRA:                  -0.329
REMARK UNBOUND:                -0.251
REMARK SMILES O=c1oc2ccccc2c(O)c1C(c1ccccc1)c1c(O)c2ccccc2oc1=O
REMARK SMILES IDX 13 1 12 2 1 3 2 4 3 5 4 6 10 7 5 8 9 9 6 10 8 11 7 12 11 13
REMARK SMILES IDX 14 15 15 16 19 17 16 18 18 19 17 20 20 21 21 22 30 23 23 24
REMARK SMILES IDX 29 25 31 26 24 27 28 28 25 29 27 30 26 31 22 32
REMARK H PARENT 11 14 22 33
ROOT
ATOM      1  C   UNL     1      30.276  15.071  15.741  1.00  0.00     0.102 C 
ENDROOT
BRANCH   1   2
ATOM      2  C   UNL     1      30.060  15.733  17.108  1.00  0.00     0.092 A 
ATOM      3  O   UNL     1      31.342  17.654  16.518  1.00  0.00    -0.246 OA
ATOM      4  C   UNL     1      30.700  17.047  17.368  1.00  0.00     0.344 A 
ATOM      5  O   UNL     1      30.585  17.577  18.647  1.00  0.00    -0.422 OA
ATOM      6  C   UNL     1      29.786  16.979  19.631  1.00  0.00     0.142 A 
ATOM      7  C   UNL     1      29.351  15.137  18.087  1.00  0.00     0.138 A 
ATOM      8  C   UNL     1      29.662  17.664  20.841  1.00  0.00     0.048 A 
ATOM      9  C   UNL     1      29.131  15.778  19.385  1.00  0.00     0.060 A 
ATOM     10  C   UNL     1      28.842  17.143  21.836  1.00  0.00     0.004 A 
ATOM     11  C   UNL     1      28.287  15.280  20.387  1.00  0.00     0.016 A 
ATOM     12  C   UNL     1      28.148  15.955  21.606  1.00  0.00     0.001 A 
BRANCH   7  13
ATOM     13  O   UNL     1      28.808  13.879  17.898  1.00  0.00    -0.507 OA
ATOM     14  H   UNL     1      27.840  13.952  17.917  1.00  0.00     0.293 HD
ENDBRANCH   7  13
ENDBRANCH   1   2
BRANCH   1  15
ATOM     15  C   UNL     1      31.422  14.050  15.718  1.00  0.00    -0.035 A 
ATOM     16  C   UNL     1      32.009  13.699  14.487  1.00  0.00     0.005 A 
ATOM     17  C   UNL     1      31.914  13.440  16.884  1.00  0.00     0.005 A 
ATOM     18  C   UNL     1      33.062  12.784  14.428  1.00  0.00     0.000 A 
ATOM     19  C   UNL     1      32.967  12.524  16.822  1.00  0.00     0.000 A 
ATOM     20  C   UNL     1      33.542  12.199  15.597  1.00  0.00     0.000 A 
ENDBRANCH   1  15
BRANCH   1  21
ATOM     21  C   UNL     1      28.995  14.706  14.986  1.00  0.00     0.092 A 
ATOM     22  C   UNL     1      28.318  15.637  14.284  1.00  0.00     0.138 A 
ATOM     23  C   UNL     1      28.500  13.300  15.004  1.00  0.00     0.344 A 
ATOM     24  C   UNL     1      27.076  15.325  13.571  1.00  0.00     0.060 A 
ATOM     25  O   UNL     1      27.407  13.005  14.193  1.00  0.00    -0.422 OA
ATOM     26  O   UNL     1      29.022  12.398  15.647  1.00  0.00    -0.246 OA
ATOM     27  C   UNL     1      26.254  16.276  12.948  1.00  0.00     0.016 A 
ATOM     28  C   UNL     1      26.675  13.997  13.527  1.00  0.00     0.142 A 
ATOM     29  C   UNL     1      25.092  15.881  12.272  1.00  0.00     0.001 A 
ATOM     30  C   UNL     1      25.523  13.586  12.856  1.00  0.00     0.048 A 
ATOM     31  C   UNL     1      24.732  14.536  12.219  1.00  0.00     0.004 A 
BRANCH  22  32
ATOM     32  O   UNL     1      28.785  16.938  14.208  1.00  0.00    -0.507 OA
ATOM     33  H   UNL     1      28.757  17.328  15.099  1.00  0.00     0.293 HD
ENDBRANCH  22  32
ENDBRANCH   1  21
TORSDOF 5
ENDMDL
MODEL 17
REMARK VINA RESULT:    -7.814     15.105     18.285
REMARK INTER + INTRA:          -9.892
REMARK INTER:                 -10.626
REMARK INTRA:                   0.734
REMARK UNBOUND:                -0.251
REMARK SMILES O=c1oc2ccccc2c(O)c1C(c1ccccc1)c1c(O)c2ccccc2oc1=O
REMARK SMILES IDX 13 1 12 2 1 3 2 4 3 5 4 6 10 7 5 8 9 9 6 10 8 11 7 12 11 13
REMARK SMILES IDX 14 15 15 16 19 17 16 18 18 19 17 20 20 21 21 22 30 23 23 24
REMARK SMILES IDX 29 25 31 26 24 27 28 28 25 29 27 30 26 31 22 32
REMARK H PARENT 11 14 22 33
ROOT
ATOM      1  C   UNL     1      29.846  10.420  32.949  1.00  0.00     0.102 C 
ENDROOT
BRANCH   1   2
ATOM      2  C   UNL     1      29.947   8.941  33.344  1.00  0.00     0.092 A 
ATOM      3  O   UNL     1      32.329   8.961  33.293  1.00  0.00    -0.246 OA
ATOM      4  C   UNL     1      31.292   8.325  33.448  1.00  0.00     0.344 A 
ATOM      5  O   UNL     1      31.359   6.960  33.697  1.00  0.00    -0.422 OA
ATOM      6  C   UNL     1      30.215   6.198  33.978  1.00  0.00     0.142 A 
ATOM      7  C   UNL     1      28.853   8.181  33.549  1.00  0.00     0.138 A 
ATOM      8  C   UNL     1      30.420   4.861  34.320  1.00  0.00     0.048 A 
ATOM      9  C   UNL     1      28.950   6.773  33.943  1.00  0.00     0.060 A 
ATOM     10  C   UNL     1      29.326   4.071  34.658  1.00  0.00     0.004 A 
ATOM     11  C   UNL     1      27.861   5.972  34.312  1.00  0.00     0.016 A 
ATOM     12  C   UNL     1      28.047   4.629  34.661  1.00  0.00     0.001 A 
BRANCH   7  13
ATOM     13  O   UNL     1      27.586   8.709  33.384  1.00  0.00    -0.507 OA
ATOM     14  H   UNL     1      26.942   8.104  33.788  1.00  0.00     0.293 HD
ENDBRANCH   7  13
ENDBRANCH   1   2
BRANCH   1  15
ATOM     15  C   UNL     1      29.855  11.385  34.143  1.00  0.00    -0.035 A 
ATOM     16  C   UNL     1      30.653  11.088  35.264  1.00  0.00     0.005 A 
ATOM     17  C   UNL     1      29.092  12.564  34.166  1.00  0.00     0.005 A 
ATOM     18  C   UNL     1      30.698  11.950  36.362  1.00  0.00     0.000 A 
ATOM     19  C   UNL     1      29.136  13.423  35.267  1.00  0.00     0.000 A 
ATOM     20  C   UNL     1      29.940  13.118  36.362  1.00  0.00     0.000 A 
ENDBRANCH   1  15
BRANCH   1  21
ATOM     21  C   UNL     1      30.658  10.821  31.715  1.00  0.00     0.092 A 
ATOM     22  C   UNL     1      30.517  10.158  30.549  1.00  0.00     0.138 A 
ATOM     23  C   UNL     1      31.601  11.973  31.792  1.00  0.00     0.344 A 
ATOM     24  C   UNL     1      31.297  10.502  29.357  1.00  0.00     0.060 A 
ATOM     25  O   UNL     1      32.211  12.370  30.604  1.00  0.00    -0.422 OA
ATOM     26  O   UNL     1      31.828  12.606  32.815  1.00  0.00    -0.246 OA
ATOM     27  C   UNL     1      31.301   9.762  28.165  1.00  0.00     0.016 A 
ATOM     28  C   UNL     1      32.106  11.628  29.420  1.00  0.00     0.142 A 
ATOM     29  C   UNL     1      32.066  10.179  27.069  1.00  0.00     0.001 A 
ATOM     30  C   UNL     1      32.873  12.059  28.337  1.00  0.00     0.048 A 
ATOM     31  C   UNL     1      32.845  11.332  27.152  1.00  0.00     0.004 A 
BRANCH  22  32
ATOM     32  O   UNL     1      29.610   9.119  30.437  1.00  0.00    -0.507 OA
ATOM     33  H   UNL     1      29.135   9.213  29.594  1.00  0.00     0.293 HD
ENDBRANCH  22  32
ENDBRANCH   1  21
TORSDOF 5
ENDMDL
MODEL 18
REMARK VINA RESULT:    -7.772     13.346     16.206
REMARK INTER + INTRA:          -9.840
REMARK INTER:                  -9.849
REMARK INTRA:                   0.009
REMARK UNBOUND:                -0.251
REMARK SMILES O=c1oc2ccccc2c(O)c1C(c1ccccc1)c1c(O)c2ccccc2oc1=O
REMARK SMILES IDX 13 1 12 2 1 3 2 4 3 5 4 6 10 7 5 8 9 9 6 10 8 11 7 12 11 13
REMARK SMILES IDX 14 15 15 16 19 17 16 18 18 19 17 20 20 21 21 22 30 23 23 24
REMARK SMILES IDX 29 25 31 26 24 27 28 28 25 29 27 30 26 31 22 32
REMARK H PARENT 11 14 22 33
ROOT
ATOM      1  C   UNL     1      23.642   5.270  26.937  1.00  0.00     0.102 C 
ENDROOT
BRANCH   1   2
ATOM      2  C   UNL     1      22.789   6.545  26.906  1.00  0.00     0.092 A 
ATOM      3  O   UNL     1      21.234   5.692  28.497  1.00  0.00    -0.246 OA
ATOM      4  C   UNL     1      21.563   6.598  27.739  1.00  0.00     0.344 A 
ATOM      5  O   UNL     1      20.746   7.715  27.613  1.00  0.00    -0.422 OA
ATOM      6  C   UNL     1      21.115   8.823  26.837  1.00  0.00     0.142 A 
ATOM      7  C   UNL     1      23.096   7.590  26.112  1.00  0.00     0.138 A 
ATOM      8  C   UNL     1      20.264   9.929  26.876  1.00  0.00     0.048 A 
ATOM      9  C   UNL     1      22.291   8.814  26.096  1.00  0.00     0.060 A 
ATOM     10  C   UNL     1      20.606  11.074  26.165  1.00  0.00     0.004 A 
ATOM     11  C   UNL     1      22.636   9.985  25.408  1.00  0.00     0.016 A 
ATOM     12  C   UNL     1      21.796  11.105  25.437  1.00  0.00     0.001 A 
BRANCH   7  13
ATOM     13  O   UNL     1      24.191   7.538  25.269  1.00  0.00    -0.507 OA
ATOM     14  H   UNL     1      23.882   7.625  24.353  1.00  0.00     0.293 HD
ENDBRANCH   7  13
ENDBRANCH   1   2
BRANCH   1  15
ATOM     15  C   UNL     1      23.714   4.536  25.591  1.00  0.00    -0.035 A 
ATOM     16  C   UNL     1      24.134   3.192  25.560  1.00  0.00     0.005 A 
ATOM     17  C   UNL     1      23.378   5.153  24.376  1.00  0.00     0.005 A 
ATOM     18  C   UNL     1      24.199   2.488  24.356  1.00  0.00     0.000 A 
ATOM     19  C   UNL     1      23.445   4.447  23.172  1.00  0.00     0.000 A 
ATOM     20  C   UNL     1      23.852   3.116  23.162  1.00  0.00     0.000 A 
ENDBRANCH   1  15
BRANCH   1  21
ATOM     21  C   UNL     1      24.935   5.372  27.751  1.00  0.00     0.092 A 
ATOM     22  C   UNL     1      24.930   5.168  29.084  1.00  0.00     0.138 A 
ATOM     23  C   UNL     1      26.221   5.677  27.062  1.00  0.00     0.344 A 
ATOM     24  C   UNL     1      26.145   5.282  29.895  1.00  0.00     0.060 A 
ATOM     25  O   UNL     1      27.378   5.626  27.836  1.00  0.00    -0.422 OA
ATOM     26  O   UNL     1      26.317   5.920  25.866  1.00  0.00    -0.246 OA
ATOM     27  C   UNL     1      26.178   5.225  31.296  1.00  0.00     0.016 A 
ATOM     28  C   UNL     1      27.347   5.482  29.229  1.00  0.00     0.142 A 
ATOM     29  C   UNL     1      27.393   5.325  31.987  1.00  0.00     0.001 A 
ATOM     30  C   UNL     1      28.566   5.582  29.900  1.00  0.00     0.048 A 
ATOM     31  C   UNL     1      28.587   5.495  31.288  1.00  0.00     0.004 A 
BRANCH  22  32
ATOM     32  O   UNL     1      23.758   4.832  29.740  1.00  0.00    -0.507 OA
ATOM     33  H   UNL     1      23.987   4.379  30.569  1.00  0.00     0.293 HD
ENDBRANCH  22  32
ENDBRANCH   1  21
TORSDOF 5
ENDMDL
MODEL 19
REMARK VINA RESULT:    -7.760      7.603     11.536
REMARK INTER + INTRA:          -9.825
REMARK INTER:                  -9.525
REMARK INTRA:                  -0.300
REMARK UNBOUND:                -0.251
REMARK SMILES O=c1oc2ccccc2c(O)c1C(c1ccccc1)c1c(O)c2ccccc2oc1=O
REMARK SMILES IDX 13 1 12 2 1 3 2 4 3 5 4 6 10 7 5 8 9 9 6 10 8 11 7 12 11 13
REMARK SMILES IDX 14 15 15 16 19 17 16 18 18 19 17 20 20 21 21 22 30 23 23 24
REMARK SMILES IDX 29 25 31 26 24 27 28 28 25 29 27 30 26 31 22 32
REMARK H PARENT 11 14 22 33
ROOT
ATOM      1  C   UNL     1      24.068  17.540  14.149  1.00  0.00     0.102 C 
ENDROOT
BRANCH   1   2
ATOM      2  C   UNL     1      23.580  18.979  13.939  1.00  0.00     0.092 A 
ATOM      3  O   UNL     1      22.970  19.239  16.228  1.00  0.00    -0.246 OA
ATOM      4  C   UNL     1      23.011  19.712  15.097  1.00  0.00     0.344 A 
ATOM      5  O   UNL     1      22.473  20.971  14.862  1.00  0.00    -0.422 OA
ATOM      6  C   UNL     1      22.576  21.603  13.615  1.00  0.00     0.142 A 
ATOM      7  C   UNL     1      23.610  19.574  12.730  1.00  0.00     0.138 A 
ATOM      8  C   UNL     1      22.095  22.911  13.532  1.00  0.00     0.048 A 
ATOM      9  C   UNL     1      23.160  20.954  12.534  1.00  0.00     0.060 A 
ATOM     10  C   UNL     1      22.217  23.604  12.332  1.00  0.00     0.004 A 
ATOM     11  C   UNL     1      23.300  21.675  11.340  1.00  0.00     0.016 A 
ATOM     12  C   UNL     1      22.826  22.989  11.239  1.00  0.00     0.001 A 
BRANCH   7  13
ATOM     13  O   UNL     1      24.064  18.889  11.618  1.00  0.00    -0.507 OA
ATOM     14  H   UNL     1      25.034  18.851  11.651  1.00  0.00     0.293 HD
ENDBRANCH   7  13
ENDBRANCH   1   2
BRANCH   1  15
ATOM     15  C   UNL     1      23.508  16.538  13.131  1.00  0.00    -0.035 A 
ATOM     16  C   UNL     1      22.150  16.611  12.766  1.00  0.00     0.005 A 
ATOM     17  C   UNL     1      24.299  15.536  12.545  1.00  0.00     0.005 A 
ATOM     18  C   UNL     1      21.608  15.724  11.833  1.00  0.00     0.000 A 
ATOM     19  C   UNL     1      23.754  14.649  11.613  1.00  0.00     0.000 A 
ATOM     20  C   UNL     1      22.412  14.744  11.255  1.00  0.00     0.000 A 
ENDBRANCH   1  15
BRANCH   1  21
ATOM     21  C   UNL     1      25.545  17.403  14.530  1.00  0.00     0.092 A 
ATOM     22  C   UNL     1      25.908  17.117  15.797  1.00  0.00     0.138 A 
ATOM     23  C   UNL     1      26.596  17.564  13.486  1.00  0.00     0.344 A 
ATOM     24  C   UNL     1      27.312  17.003  16.199  1.00  0.00     0.060 A 
ATOM     25  O   UNL     1      27.909  17.299  13.867  1.00  0.00    -0.422 OA
ATOM     26  O   UNL     1      26.366  17.868  12.323  1.00  0.00    -0.246 OA
ATOM     27  C   UNL     1      27.754  16.852  17.521  1.00  0.00     0.016 A 
ATOM     28  C   UNL     1      28.275  17.071  15.201  1.00  0.00     0.142 A 
ATOM     29  C   UNL     1      29.120  16.732  17.808  1.00  0.00     0.001 A 
ATOM     30  C   UNL     1      29.639  16.951  15.468  1.00  0.00     0.048 A 
ATOM     31  C   UNL     1      30.061  16.774  16.781  1.00  0.00     0.004 A 
BRANCH  22  32
ATOM     32  O   UNL     1      24.949  16.911  16.774  1.00  0.00    -0.507 OA
ATOM     33  H   UNL     1      25.187  17.437  17.556  1.00  0.00     0.293 HD
ENDBRANCH  22  32
ENDBRANCH   1  21
TORSDOF 5
ENDMDL
MODEL 20
REMARK VINA RESULT:    -7.721      2.993      5.497
REMARK INTER + INTRA:          -9.777
REMARK INTER:                  -9.643
REMARK INTRA:                  -0.134
REMARK UNBOUND:                -0.251
REMARK SMILES O=c1oc2ccccc2c(O)c1C(c1ccccc1)c1c(O)c2ccccc2oc1=O
REMARK SMILES IDX 13 1 12 2 1 3 2 4 3 5 4 6 10 7 5 8 9 9 6 10 8 11 7 12 11 13
REMARK SMILES IDX 14 15 15 16 19 17 16 18 18 19 17 20 20 21 21 22 30 23 23 24
REMARK SMILES IDX 29 25 31 26 24 27 28 28 25 29 27 30 26 31 22 32
REMARK H PARENT 11 14 22 33
ROOT
ATOM      1  C   UNL     1      30.412  12.584  15.059  1.00  0.00     0.102 C 
ENDROOT
BRANCH   1   2
ATOM      2  C   UNL     1      29.269  11.651  14.641  1.00  0.00     0.092 A 
ATOM      3  O   UNL     1      30.523   9.687  15.140  1.00  0.00    -0.246 OA
ATOM      4  C   UNL     1      29.490  10.185  14.708  1.00  0.00     0.344 A 
ATOM      5  O   UNL     1      28.484   9.359  14.221  1.00  0.00    -0.422 OA
ATOM      6  C   UNL     1      27.243   9.863  13.805  1.00  0.00     0.142 A 
ATOM      7  C   UNL     1      28.096  12.123  14.174  1.00  0.00     0.138 A 
ATOM      8  C   UNL     1      26.275   8.926  13.441  1.00  0.00     0.048 A 
ATOM      9  C   UNL     1      26.999  11.232  13.792  1.00  0.00     0.060 A 
ATOM     10  C   UNL     1      25.010   9.368  13.067  1.00  0.00     0.004 A 
ATOM     11  C   UNL     1      25.711  11.659  13.440  1.00  0.00     0.016 A 
ATOM     12  C   UNL     1      24.725  10.733  13.074  1.00  0.00     0.001 A 
BRANCH   7  13
ATOM     13  O   UNL     1      27.891  13.483  14.030  1.00  0.00    -0.507 OA
ATOM     14  H   UNL     1      27.036  13.623  13.590  1.00  0.00     0.293 HD
ENDBRANCH   7  13
ENDBRANCH   1   2
BRANCH   1  15
ATOM     15  C   UNL     1      31.463  12.812  13.963  1.00  0.00    -0.035 A 
ATOM     16  C   UNL     1      32.778  13.154  14.329  1.00  0.00     0.005 A 
ATOM     17  C   UNL     1      31.164  12.695  12.596  1.00  0.00     0.005 A 
ATOM     18  C   UNL     1      33.764  13.355  13.359  1.00  0.00     0.000 A 
ATOM     19  C   UNL     1      32.151  12.899  11.628  1.00  0.00     0.000 A 
ATOM     20  C   UNL     1      33.450  13.225  12.009  1.00  0.00     0.000 A 
ENDBRANCH   1  15
BRANCH   1  21
ATOM     21  C   UNL     1      29.990  13.799  15.890  1.00  0.00     0.092 A 
ATOM     22  C   UNL     1      29.681  13.670  17.196  1.00  0.00     0.138 A 
ATOM     23  C   UNL     1      29.941  15.148  15.256  1.00  0.00     0.344 A 
ATOM     24  C   UNL     1      29.250  14.808  18.012  1.00  0.00     0.060 A 
ATOM     25  O   UNL     1      29.678  16.229  16.094  1.00  0.00    -0.422 OA
ATOM     26  O   UNL     1      30.161  15.356  14.070  1.00  0.00    -0.246 OA
ATOM     27  C   UNL     1      28.779  14.712  19.329  1.00  0.00     0.016 A 
ATOM     28  C   UNL     1      29.291  16.068  17.432  1.00  0.00     0.142 A 
ATOM     29  C   UNL     1      28.406  15.861  20.039  1.00  0.00     0.001 A 
ATOM     30  C   UNL     1      28.926  17.223  18.124  1.00  0.00     0.048 A 
ATOM     31  C   UNL     1      28.487  17.116  19.439  1.00  0.00     0.004 A 
BRANCH  22  32
ATOM     32  O   UNL     1      29.769  12.438  17.820  1.00  0.00    -0.507 OA
ATOM     33  H   UNL     1      30.659  12.347  18.202  1.00  0.00     0.293 HD
ENDBRANCH  22  32
ENDBRANCH   1  21
TORSDOF 5
ENDMDL
