MODEL 1
REMARK VINA RESULT:    -7.855      0.000      0.000
REMARK INTER + INTRA:         -10.343
REMARK INTER:                  -9.232
REMARK INTRA:                  -1.111
REMARK UNBOUND:                -1.111
REMARK SMILES CC(=O)N[C@@H](c1ccccc1)c1c([O-])c2ccccc2oc1=O
REMARK SMILES IDX 5 1 4 2 2 3 3 4 1 5 6 7 7 8 11 9 8 10 10 11 9 12 12 13 13 14
REMARK SMILES IDX 22 15 15 16 21 17 23 18 16 19 20 20 17 21 19 22 18 23 14 24
REMARK H PARENT 4 6
ROOT
ATOM      1  C   UNL     1      29.040   9.565  12.541  1.00  0.00     0.149 C 
ENDROOT
BRANCH   1   2
ATOM      2  N   UNL     1      29.360  10.249  13.782  1.00  0.00    -0.345 N 
ATOM      3  C   UNL     1      30.277   9.838  14.698  1.00  0.00     0.217 C 
ATOM      4  O   UNL     1      30.978   8.835  14.592  1.00  0.00    -0.275 OA
ATOM      5  C   UNL     1      30.392  10.765  15.877  1.00  0.00     0.114 C 
ATOM      6  H   UNL     1      28.849  11.135  13.885  1.00  0.00     0.164 HD
ENDBRANCH   1   2
BRANCH   1   7
ATOM      7  C   UNL     1      27.592   9.075  12.578  1.00  0.00    -0.021 A 
ATOM      8  C   UNL     1      26.994   8.481  11.452  1.00  0.00     0.006 A 
ATOM      9  C   UNL     1      26.823   9.223  13.744  1.00  0.00     0.006 A 
ATOM     10  C   UNL     1      25.671   8.039  11.496  1.00  0.00     0.000 A 
ATOM     11  C   UNL     1      25.500   8.782  13.785  1.00  0.00     0.000 A 
ATOM     12  C   UNL     1      24.924   8.189  12.663  1.00  0.00     0.000 A 
ENDBRANCH   1   7
BRANCH   1  13
ATOM     13  C   UNL     1      29.327  10.469  11.328  1.00  0.00     0.057 A 
ATOM     14  C   UNL     1      28.898  11.759  11.182  1.00  0.00    -0.085 A 
ATOM     15  C   UNL     1      30.166   9.749  10.327  1.00  0.00     0.341 A 
ATOM     16  C   UNL     1      29.313  12.401   9.889  1.00  0.00     0.010 A 
ATOM     17  O   UNL     1      30.458  10.392   9.140  1.00  0.00    -0.423 OA
ATOM     18  O   UNL     1      30.609   8.617  10.519  1.00  0.00    -0.246 OA
ATOM     19  C   UNL     1      28.967  13.730   9.573  1.00  0.00     0.011 A 
ATOM     20  C   UNL     1      30.050  11.710   8.936  1.00  0.00     0.137 A 
ATOM     21  C   UNL     1      29.345  14.325   8.362  1.00  0.00     0.001 A 
ATOM     22  C   UNL     1      30.436  12.286   7.718  1.00  0.00     0.048 A 
ATOM     23  C   UNL     1      30.081  13.600   7.432  1.00  0.00     0.004 A 
ATOM     24  O   UNL     1      28.198  12.423  12.011  1.00  0.00    -0.872 OA
ENDBRANCH   1  13
TORSDOF 3
ENDMDL
MODEL 2
REMARK VINA RESULT:    -7.786      3.886      5.671
REMARK INTER + INTRA:         -10.263
REMARK INTER:                  -9.321
REMARK INTRA:                  -0.942
REMARK UNBOUND:                -1.111
REMARK SMILES CC(=O)N[C@@H](c1ccccc1)c1c([O-])c2ccccc2oc1=O
REMARK SMILES IDX 5 1 4 2 2 3 3 4 1 5 6 7 7 8 11 9 8 10 10 11 9 12 12 13 13 14
REMARK SMILES IDX 22 15 15 16 21 17 23 18 16 19 20 20 17 21 19 22 18 23 14 24
REMARK H PARENT 4 6
ROOT
ATOM      1  C   UNL     1      30.190  13.277  10.021  1.00  0.00     0.149 C 
ENDROOT
BRANCH   1   2
ATOM      2  N   UNL     1      28.899  13.941  10.090  1.00  0.00    -0.345 N 
ATOM      3  C   UNL     1      27.929  13.689  11.010  1.00  0.00     0.217 C 
ATOM      4  O   UNL     1      28.020  12.876  11.925  1.00  0.00    -0.275 OA
ATOM      5  C   UNL     1      26.707  14.547  10.830  1.00  0.00     0.114 C 
ATOM      6  H   UNL     1      28.801  14.683   9.387  1.00  0.00     0.164 HD
ENDBRANCH   1   2
BRANCH   1   7
ATOM      7  C   UNL     1      30.066  11.988   9.209  1.00  0.00    -0.021 A 
ATOM      8  C   UNL     1      29.945  10.737   9.840  1.00  0.00     0.006 A 
ATOM      9  C   UNL     1      30.083  12.030   7.806  1.00  0.00     0.006 A 
ATOM     10  C   UNL     1      29.834   9.566   9.089  1.00  0.00     0.000 A 
ATOM     11  C   UNL     1      29.973  10.857   7.056  1.00  0.00     0.000 A 
ATOM     12  C   UNL     1      29.848   9.626   7.697  1.00  0.00     0.000 A 
ENDBRANCH   1   7
BRANCH   1  13
ATOM     13  C   UNL     1      31.264  14.227   9.459  1.00  0.00     0.057 A 
ATOM     14  C   UNL     1      31.036  15.256   8.588  1.00  0.00    -0.085 A 
ATOM     15  C   UNL     1      32.604  13.888  10.019  1.00  0.00     0.341 A 
ATOM     16  C   UNL     1      32.272  16.013   8.195  1.00  0.00     0.010 A 
ATOM     17  O   UNL     1      33.698  14.598   9.563  1.00  0.00    -0.423 OA
ATOM     18  O   UNL     1      32.771  13.011  10.866  1.00  0.00    -0.246 OA
ATOM     19  C   UNL     1      32.223  17.109   7.311  1.00  0.00     0.011 A 
ATOM     20  C   UNL     1      33.526  15.660   8.676  1.00  0.00     0.137 A 
ATOM     21  C   UNL     1      33.378  17.809   6.935  1.00  0.00     0.001 A 
ATOM     22  C   UNL     1      34.693  16.345   8.312  1.00  0.00     0.048 A 
ATOM     23  C   UNL     1      34.616  17.424   7.438  1.00  0.00     0.004 A 
ATOM     24  O   UNL     1      29.913  15.597   8.098  1.00  0.00    -0.872 OA
ENDBRANCH   1  13
TORSDOF 3
ENDMDL
MODEL 3
REMARK VINA RESULT:    -7.745      4.613      6.549
REMARK INTER + INTRA:         -10.214
REMARK INTER:                  -9.786
REMARK INTRA:                  -0.429
REMARK UNBOUND:                -1.111
REMARK SMILES CC(=O)N[C@@H](c1ccccc1)c1c([O-])c2ccccc2oc1=O
REMARK SMILES IDX 5 1 4 2 2 3 3 4 1 5 6 7 7 8 11 9 8 10 10 11 9 12 12 13 13 14
REMARK SMILES IDX 22 15 15 16 21 17 23 18 16 19 20 20 17 21 19 22 18 23 14 24
REMARK H PARENT 4 6
ROOT
ATOM      1  C   UNL     1      31.773  13.307  10.266  1.00  0.00     0.149 C 
ENDROOT
BRANCH   1   2
ATOM      2  N   UNL     1      30.945  14.149  11.113  1.00  0.00    -0.345 N 
ATOM      3  C   UNL     1      30.437  13.795  12.324  1.00  0.00     0.217 C 
ATOM      4  O   UNL     1      30.626  12.716  12.879  1.00  0.00    -0.275 OA
ATOM      5  C   UNL     1      29.627  14.886  12.967  1.00  0.00     0.114 C 
ATOM      6  H   UNL     1      30.816  15.091  10.724  1.00  0.00     0.164 HD
ENDBRANCH   1   2
BRANCH   1   7
ATOM      7  C   UNL     1      31.007  12.939   8.994  1.00  0.00    -0.021 A 
ATOM      8  C   UNL     1      29.956  13.743   8.517  1.00  0.00     0.006 A 
ATOM      9  C   UNL     1      31.336  11.775   8.281  1.00  0.00     0.006 A 
ATOM     10  C   UNL     1      29.263  13.397   7.357  1.00  0.00     0.000 A 
ATOM     11  C   UNL     1      30.641  11.429   7.121  1.00  0.00     0.000 A 
ATOM     12  C   UNL     1      29.606  12.240   6.658  1.00  0.00     0.000 A 
ENDBRANCH   1   7
BRANCH   1  13
ATOM     13  C   UNL     1      33.120  13.990   9.965  1.00  0.00     0.057 A 
ATOM     14  C   UNL     1      33.353  14.871   8.945  1.00  0.00    -0.085 A 
ATOM     15  C   UNL     1      34.149  13.577  10.963  1.00  0.00     0.341 A 
ATOM     16  C   UNL     1      34.766  15.373   8.879  1.00  0.00     0.010 A 
ATOM     17  O   UNL     1      35.438  14.043  10.799  1.00  0.00    -0.423 OA
ATOM     18  O   UNL     1      33.894  12.848  11.922  1.00  0.00    -0.246 OA
ATOM     19  C   UNL     1      35.183  16.294   7.897  1.00  0.00     0.011 A 
ATOM     20  C   UNL     1      35.735  14.945   9.778  1.00  0.00     0.137 A 
ATOM     21  C   UNL     1      36.505  16.755   7.828  1.00  0.00     0.001 A 
ATOM     22  C   UNL     1      37.062  15.392   9.725  1.00  0.00     0.048 A 
ATOM     23  C   UNL     1      37.447  16.301   8.746  1.00  0.00     0.004 A 
ATOM     24  O   UNL     1      32.508  15.269   8.082  1.00  0.00    -0.872 OA
ENDBRANCH   1  13
TORSDOF 3
ENDMDL
MODEL 4
REMARK VINA RESULT:    -7.656      3.694      6.080
REMARK INTER + INTRA:         -10.110
REMARK INTER:                  -8.898
REMARK INTRA:                  -1.212
REMARK UNBOUND:                -1.111
REMARK SMILES CC(=O)N[C@@H](c1ccccc1)c1c([O-])c2ccccc2oc1=O
REMARK SMILES IDX 5 1 4 2 2 3 3 4 1 5 6 7 7 8 11 9 8 10 10 11 9 12 12 13 13 14
REMARK SMILES IDX 22 15 15 16 21 17 23 18 16 19 20 20 17 21 19 22 18 23 14 24
REMARK H PARENT 4 6
ROOT
ATOM      1  C   UNL     1      29.641  13.234   9.033  1.00  0.00     0.149 C 
ENDROOT
BRANCH   1   2
ATOM      2  N   UNL     1      29.921  11.904   8.520  1.00  0.00    -0.345 N 
ATOM      3  C   UNL     1      29.948  11.553   7.206  1.00  0.00     0.217 C 
ATOM      4  O   UNL     1      29.756  12.322   6.268  1.00  0.00    -0.275 OA
ATOM      5  C   UNL     1      30.279  10.102   6.989  1.00  0.00     0.114 C 
ATOM      6  H   UNL     1      30.159  11.238   9.265  1.00  0.00     0.164 HD
ENDBRANCH   1   2
BRANCH   1   7
ATOM      7  C   UNL     1      29.177  13.141  10.488  1.00  0.00    -0.021 A 
ATOM      8  C   UNL     1      28.995  14.295  11.270  1.00  0.00     0.006 A 
ATOM      9  C   UNL     1      28.934  11.890  11.075  1.00  0.00     0.006 A 
ATOM     10  C   UNL     1      28.573  14.199  12.597  1.00  0.00     0.000 A 
ATOM     11  C   UNL     1      28.513  11.795  12.403  1.00  0.00     0.000 A 
ATOM     12  C   UNL     1      28.332  12.948  13.163  1.00  0.00     0.000 A 
ENDBRANCH   1   7
BRANCH   1  13
ATOM     13  C   UNL     1      30.863  14.156   8.862  1.00  0.00     0.057 A 
ATOM     14  C   UNL     1      32.135  13.872   9.278  1.00  0.00    -0.085 A 
ATOM     15  C   UNL     1      30.477  15.408   8.150  1.00  0.00     0.341 A 
ATOM     16  C   UNL     1      33.130  14.960   8.992  1.00  0.00     0.010 A 
ATOM     17  O   UNL     1      31.441  16.381   7.975  1.00  0.00    -0.423 OA
ATOM     18  O   UNL     1      29.343  15.604   7.712  1.00  0.00    -0.246 OA
ATOM     19  C   UNL     1      34.489  14.835   9.343  1.00  0.00     0.011 A 
ATOM     20  C   UNL     1      32.756  16.148   8.377  1.00  0.00     0.137 A 
ATOM     21  C   UNL     1      35.416  15.854   9.087  1.00  0.00     0.001 A 
ATOM     22  C   UNL     1      33.666  17.179   8.113  1.00  0.00     0.048 A 
ATOM     23  C   UNL     1      35.002  17.030   8.470  1.00  0.00     0.004 A 
ATOM     24  O   UNL     1      32.518  12.815   9.870  1.00  0.00    -0.872 OA
ENDBRANCH   1  13
TORSDOF 3
ENDMDL
MODEL 5
REMARK VINA RESULT:    -7.544      1.804      5.400
REMARK INTER + INTRA:          -9.978
REMARK INTER:                  -8.778
REMARK INTRA:                  -1.200
REMARK UNBOUND:                -1.111
REMARK SMILES CC(=O)N[C@@H](c1ccccc1)c1c([O-])c2ccccc2oc1=O
REMARK SMILES IDX 5 1 4 2 2 3 3 4 1 5 6 7 7 8 11 9 8 10 10 11 9 12 12 13 13 14
REMARK SMILES IDX 22 15 15 16 21 17 23 18 16 19 20 20 17 21 19 22 18 23 14 24
REMARK H PARENT 4 6
ROOT
ATOM      1  C   UNL     1      29.361  11.308  12.787  1.00  0.00     0.149 C 
ENDROOT
BRANCH   1   2
ATOM      2  N   UNL     1      30.622  10.737  13.229  1.00  0.00    -0.345 N 
ATOM      3  C   UNL     1      30.831  10.106  14.416  1.00  0.00     0.217 C 
ATOM      4  O   UNL     1      29.972   9.915  15.273  1.00  0.00    -0.275 OA
ATOM      5  C   UNL     1      32.242   9.611  14.582  1.00  0.00     0.114 C 
ATOM      6  H   UNL     1      31.357  10.809  12.516  1.00  0.00     0.164 HD
ENDBRANCH   1   2
BRANCH   1   7
ATOM      7  C   UNL     1      29.626  12.446  11.800  1.00  0.00    -0.021 A 
ATOM      8  C   UNL     1      28.574  13.063  11.100  1.00  0.00     0.006 A 
ATOM      9  C   UNL     1      30.937  12.889  11.565  1.00  0.00     0.006 A 
ATOM     10  C   UNL     1      28.827  14.099  10.200  1.00  0.00     0.000 A 
ATOM     11  C   UNL     1      31.188  13.925  10.663  1.00  0.00     0.000 A 
ATOM     12  C   UNL     1      30.134  14.530   9.982  1.00  0.00     0.000 A 
ENDBRANCH   1   7
BRANCH   1  13
ATOM     13  C   UNL     1      28.443  10.220  12.201  1.00  0.00     0.057 A 
ATOM     14  C   UNL     1      28.752   9.405  11.147  1.00  0.00    -0.085 A 
ATOM     15  C   UNL     1      27.161  10.153  12.961  1.00  0.00     0.341 A 
ATOM     16  C   UNL     1      27.662   8.441  10.777  1.00  0.00     0.010 A 
ATOM     17  O   UNL     1      26.190   9.276  12.521  1.00  0.00    -0.423 OA
ATOM     18  O   UNL     1      26.940  10.840  13.958  1.00  0.00    -0.246 OA
ATOM     19  C   UNL     1      27.810   7.520   9.720  1.00  0.00     0.011 A 
ATOM     20  C   UNL     1      26.448   8.418  11.452  1.00  0.00     0.137 A 
ATOM     21  C   UNL     1      26.788   6.628   9.368  1.00  0.00     0.001 A 
ATOM     22  C   UNL     1      25.414   7.535  11.115  1.00  0.00     0.048 A 
ATOM     23  C   UNL     1      25.587   6.637  10.068  1.00  0.00     0.004 A 
ATOM     24  O   UNL     1      29.834   9.409  10.480  1.00  0.00    -0.872 OA
ENDBRANCH   1  13
TORSDOF 3
ENDMDL
MODEL 6
REMARK VINA RESULT:    -7.513      4.719      7.233
REMARK INTER + INTRA:          -9.942
REMARK INTER:                  -9.002
REMARK INTRA:                  -0.940
REMARK UNBOUND:                -1.111
REMARK SMILES CC(=O)N[C@@H](c1ccccc1)c1c([O-])c2ccccc2oc1=O
REMARK SMILES IDX 5 1 4 2 2 3 3 4 1 5 6 7 7 8 11 9 8 10 10 11 9 12 12 13 13 14
REMARK SMILES IDX 22 15 15 16 21 17 23 18 16 19 20 20 17 21 19 22 18 23 14 24
REMARK H PARENT 4 6
ROOT
ATOM      1  C   UNL     1      31.349  14.531   9.253  1.00  0.00     0.149 C 
ENDROOT
BRANCH   1   2
ATOM      2  N   UNL     1      32.604  15.042   8.728  1.00  0.00    -0.345 N 
ATOM      3  C   UNL     1      32.768  16.237   8.099  1.00  0.00     0.217 C 
ATOM      4  O   UNL     1      31.877  17.059   7.904  1.00  0.00    -0.275 OA
ATOM      5  C   UNL     1      34.190  16.493   7.679  1.00  0.00     0.114 C 
ATOM      6  H   UNL     1      33.396  14.421   8.930  1.00  0.00     0.164 HD
ENDBRANCH   1   2
BRANCH   1   7
ATOM      7  C   UNL     1      30.844  13.391   8.368  1.00  0.00    -0.021 A 
ATOM      8  C   UNL     1      31.316  12.076   8.532  1.00  0.00     0.006 A 
ATOM      9  C   UNL     1      29.901  13.642   7.359  1.00  0.00     0.006 A 
ATOM     10  C   UNL     1      30.849  11.043   7.717  1.00  0.00     0.000 A 
ATOM     11  C   UNL     1      29.436  12.608   6.544  1.00  0.00     0.000 A 
ATOM     12  C   UNL     1      29.908  11.310   6.723  1.00  0.00     0.000 A 
ENDBRANCH   1   7
BRANCH   1  13
ATOM     13  C   UNL     1      31.504  14.109  10.726  1.00  0.00     0.057 A 
ATOM     14  C   UNL     1      32.633  13.578  11.285  1.00  0.00    -0.085 A 
ATOM     15  C   UNL     1      30.247  14.382  11.481  1.00  0.00     0.341 A 
ATOM     16  C   UNL     1      32.498  13.246  12.743  1.00  0.00     0.010 A 
ATOM     17  O   UNL     1      30.188  13.996  12.806  1.00  0.00    -0.423 OA
ATOM     18  O   UNL     1      29.272  14.937  10.976  1.00  0.00    -0.246 OA
ATOM     19  C   UNL     1      33.566  12.699  13.483  1.00  0.00     0.011 A 
ATOM     20  C   UNL     1      31.309  13.452  13.431  1.00  0.00     0.137 A 
ATOM     21  C   UNL     1      33.437  12.378  14.841  1.00  0.00     0.001 A 
ATOM     22  C   UNL     1      31.159  13.137  14.788  1.00  0.00     0.048 A 
ATOM     23  C   UNL     1      32.229  12.598  15.494  1.00  0.00     0.004 A 
ATOM     24  O   UNL     1      33.733  13.344  10.691  1.00  0.00    -0.872 OA
ENDBRANCH   1  13
TORSDOF 3
ENDMDL
MODEL 7
REMARK VINA RESULT:    -7.335      1.565      1.891
REMARK INTER + INTRA:          -9.733
REMARK INTER:                  -8.605
REMARK INTRA:                  -1.127
REMARK UNBOUND:                -1.111
REMARK SMILES CC(=O)N[C@@H](c1ccccc1)c1c([O-])c2ccccc2oc1=O
REMARK SMILES IDX 5 1 4 2 2 3 3 4 1 5 6 7 7 8 11 9 8 10 10 11 9 12 12 13 13 14
REMARK SMILES IDX 22 15 15 16 21 17 23 18 16 19 20 20 17 21 19 22 18 23 14 24
REMARK H PARENT 4 6
ROOT
ATOM      1  C   UNL     1      29.482  10.903  12.817  1.00  0.00     0.149 C 
ENDROOT
BRANCH   1   2
ATOM      2  N   UNL     1      29.909  12.047  13.602  1.00  0.00    -0.345 N 
ATOM      3  C   UNL     1      31.190  12.315  13.976  1.00  0.00     0.217 C 
ATOM      4  O   UNL     1      32.167  11.633  13.682  1.00  0.00    -0.275 OA
ATOM      5  C   UNL     1      31.319  13.583  14.776  1.00  0.00     0.114 C 
ATOM      6  H   UNL     1      29.136  12.689  13.814  1.00  0.00     0.164 HD
ENDBRANCH   1   2
BRANCH   1   7
ATOM      7  C   UNL     1      28.062  10.500  13.219  1.00  0.00    -0.021 A 
ATOM      8  C   UNL     1      27.050  11.462  13.383  1.00  0.00     0.006 A 
ATOM      9  C   UNL     1      27.746   9.151  13.443  1.00  0.00     0.006 A 
ATOM     10  C   UNL     1      25.758  11.083  13.751  1.00  0.00     0.000 A 
ATOM     11  C   UNL     1      26.453   8.773  13.813  1.00  0.00     0.000 A 
ATOM     12  C   UNL     1      25.460   9.739  13.966  1.00  0.00     0.000 A 
ENDBRANCH   1   7
BRANCH   1  13
ATOM     13  C   UNL     1      29.607  11.195  11.310  1.00  0.00     0.057 A 
ATOM     14  C   UNL     1      29.314  12.387  10.706  1.00  0.00    -0.085 A 
ATOM     15  C   UNL     1      30.122   9.997  10.586  1.00  0.00     0.341 A 
ATOM     16  C   UNL     1      29.516  12.387   9.218  1.00  0.00     0.010 A 
ATOM     17  O   UNL     1      30.227  10.063   9.211  1.00  0.00    -0.423 OA
ATOM     18  O   UNL     1      30.457   8.962  11.163  1.00  0.00    -0.246 OA
ATOM     19  C   UNL     1      29.271  13.532   8.434  1.00  0.00     0.011 A 
ATOM     20  C   UNL     1      29.944  11.253   8.541  1.00  0.00     0.137 A 
ATOM     21  C   UNL     1      29.449  13.529   7.045  1.00  0.00     0.001 A 
ATOM     22  C   UNL     1      30.126  11.228   7.152  1.00  0.00     0.048 A 
ATOM     23  C   UNL     1      29.878  12.373   6.402  1.00  0.00     0.004 A 
ATOM     24  O   UNL     1      28.892  13.441  11.279  1.00  0.00    -0.872 OA
ENDBRANCH   1  13
TORSDOF 3
ENDMDL
MODEL 8
REMARK VINA RESULT:    -7.332      2.075      5.936
REMARK INTER + INTRA:          -9.729
REMARK INTER:                  -8.593
REMARK INTRA:                  -1.136
REMARK UNBOUND:                -1.111
REMARK SMILES CC(=O)N[C@@H](c1ccccc1)c1c([O-])c2ccccc2oc1=O
REMARK SMILES IDX 5 1 4 2 2 3 3 4 1 5 6 7 7 8 11 9 8 10 10 11 9 12 12 13 13 14
REMARK SMILES IDX 22 15 15 16 21 17 23 18 16 19 20 20 17 21 19 22 18 23 14 24
REMARK H PARENT 4 6
ROOT
ATOM      1  C   UNL     1      29.831  12.888  10.899  1.00  0.00     0.149 C 
ENDROOT
BRANCH   1   2
ATOM      2  N   UNL     1      31.119  12.586  11.500  1.00  0.00    -0.345 N 
ATOM      3  C   UNL     1      31.643  13.200  12.595  1.00  0.00     0.217 C 
ATOM      4  O   UNL     1      31.088  14.084  13.241  1.00  0.00    -0.275 OA
ATOM      5  C   UNL     1      32.992  12.660  12.985  1.00  0.00     0.114 C 
ATOM      6  H   UNL     1      31.594  11.802  11.037  1.00  0.00     0.164 HD
ENDBRANCH   1   2
BRANCH   1   7
ATOM      7  C   UNL     1      29.851  12.517   9.416  1.00  0.00    -0.021 A 
ATOM      8  C   UNL     1      30.468  11.336   8.968  1.00  0.00     0.006 A 
ATOM      9  C   UNL     1      29.258  13.364   8.466  1.00  0.00     0.006 A 
ATOM     10  C   UNL     1      30.482  11.008   7.611  1.00  0.00     0.000 A 
ATOM     11  C   UNL     1      29.274  13.036   7.109  1.00  0.00     0.000 A 
ATOM     12  C   UNL     1      29.885  11.859   6.682  1.00  0.00     0.000 A 
ENDBRANCH   1   7
BRANCH   1  13
ATOM     13  C   UNL     1      28.692  12.189  11.666  1.00  0.00     0.057 A 
ATOM     14  C   UNL     1      28.720  10.901  12.126  1.00  0.00    -0.085 A 
ATOM     15  C   UNL     1      27.547  13.123  11.864  1.00  0.00     0.341 A 
ATOM     16  C   UNL     1      27.464  10.475  12.830  1.00  0.00     0.010 A 
ATOM     17  O   UNL     1      26.408  12.634  12.474  1.00  0.00    -0.423 OA
ATOM     18  O   UNL     1      27.578  14.302  11.514  1.00  0.00    -0.246 OA
ATOM     19  C   UNL     1      27.320   9.184  13.376  1.00  0.00     0.011 A 
ATOM     20  C   UNL     1      26.378  11.330  12.966  1.00  0.00     0.137 A 
ATOM     21  C   UNL     1      26.144   8.781  14.023  1.00  0.00     0.001 A 
ATOM     22  C   UNL     1      25.193  10.947  13.608  1.00  0.00     0.048 A 
ATOM     23  C   UNL     1      25.077   9.666  14.138  1.00  0.00     0.004 A 
ATOM     24  O   UNL     1      29.677  10.073  12.000  1.00  0.00    -0.872 OA
ENDBRANCH   1  13
TORSDOF 3
ENDMDL
MODEL 9
REMARK VINA RESULT:    -7.270      0.830      2.151
REMARK INTER + INTRA:          -9.657
REMARK INTER:                  -9.123
REMARK INTRA:                  -0.534
REMARK UNBOUND:                -1.111
REMARK SMILES CC(=O)N[C@@H](c1ccccc1)c1c([O-])c2ccccc2oc1=O
REMARK SMILES IDX 5 1 4 2 2 3 3 4 1 5 6 7 7 8 11 9 8 10 10 11 9 12 12 13 13 14
REMARK SMILES IDX 22 15 15 16 21 17 23 18 16 19 20 20 17 21 19 22 18 23 14 24
REMARK H PARENT 4 6
ROOT
ATOM      1  C   UNL     1      28.835   9.576  12.862  1.00  0.00     0.149 C 
ENDROOT
BRANCH   1   2
ATOM      2  N   UNL     1      29.088  10.440  14.001  1.00  0.00    -0.345 N 
ATOM      3  C   UNL     1      30.008  10.212  14.978  1.00  0.00     0.217 C 
ATOM      4  O   UNL     1      30.767   9.248  15.019  1.00  0.00    -0.275 OA
ATOM      5  C   UNL     1      30.044  11.296  16.020  1.00  0.00     0.114 C 
ATOM      6  H   UNL     1      28.526  11.300  13.975  1.00  0.00     0.164 HD
ENDBRANCH   1   2
BRANCH   1   7
ATOM      7  C   UNL     1      27.400   9.050  12.919  1.00  0.00    -0.021 A 
ATOM      8  C   UNL     1      26.792   8.466  11.794  1.00  0.00     0.006 A 
ATOM      9  C   UNL     1      26.656   9.152  14.105  1.00  0.00     0.006 A 
ATOM     10  C   UNL     1      25.482   7.990  11.857  1.00  0.00     0.000 A 
ATOM     11  C   UNL     1      25.344   8.677  14.166  1.00  0.00     0.000 A 
ATOM     12  C   UNL     1      24.758   8.095  13.044  1.00  0.00     0.000 A 
ENDBRANCH   1   7
BRANCH   1  13
ATOM     13  C   UNL     1      29.142  10.307  11.541  1.00  0.00     0.057 A 
ATOM     14  C   UNL     1      29.824   9.777  10.481  1.00  0.00    -0.085 A 
ATOM     15  C   UNL     1      28.568  11.683  11.561  1.00  0.00     0.341 A 
ATOM     16  C   UNL     1      29.991  10.720   9.325  1.00  0.00     0.010 A 
ATOM     17  O   UNL     1      28.813  12.506  10.479  1.00  0.00    -0.423 OA
ATOM     18  O   UNL     1      27.886  12.109  12.493  1.00  0.00    -0.246 OA
ATOM     19  C   UNL     1      30.661  10.339   8.145  1.00  0.00     0.011 A 
ATOM     20  C   UNL     1      29.502  12.019   9.368  1.00  0.00     0.137 A 
ATOM     21  C   UNL     1      30.826  11.223   7.070  1.00  0.00     0.001 A 
ATOM     22  C   UNL     1      29.657  12.918   8.305  1.00  0.00     0.048 A 
ATOM     23  C   UNL     1      30.323  12.517   7.152  1.00  0.00     0.004 A 
ATOM     24  O   UNL     1      30.316   8.606  10.408  1.00  0.00    -0.872 OA
ENDBRANCH   1  13
TORSDOF 3
ENDMDL
MODEL 10
REMARK VINA RESULT:    -7.257      1.636      4.385
REMARK INTER + INTRA:          -9.641
REMARK INTER:                  -8.429
REMARK INTRA:                  -1.212
REMARK UNBOUND:                -1.111
REMARK SMILES CC(=O)N[C@@H](c1ccccc1)c1c([O-])c2ccccc2oc1=O
REMARK SMILES IDX 5 1 4 2 2 3 3 4 1 5 6 7 7 8 11 9 8 10 10 11 9 12 12 13 13 14
REMARK SMILES IDX 22 15 15 16 21 17 23 18 16 19 20 20 17 21 19 22 18 23 14 24
REMARK H PARENT 4 6
ROOT
ATOM      1  C   UNL     1      29.492  10.735  13.314  1.00  0.00     0.149 C 
ENDROOT
BRANCH   1   2
ATOM      2  N   UNL     1      28.594   9.606  13.482  1.00  0.00    -0.345 N 
ATOM      3  C   UNL     1      27.257   9.688  13.719  1.00  0.00     0.217 C 
ATOM      4  O   UNL     1      26.619  10.734  13.804  1.00  0.00    -0.275 OA
ATOM      5  C   UNL     1      26.594   8.342  13.835  1.00  0.00     0.114 C 
ATOM      6  H   UNL     1      29.068   8.704  13.349  1.00  0.00     0.164 HD
ENDBRANCH   1   2
BRANCH   1   7
ATOM      7  C   UNL     1      30.860  10.402  13.910  1.00  0.00    -0.021 A 
ATOM      8  C   UNL     1      31.872  11.375  14.001  1.00  0.00     0.006 A 
ATOM      9  C   UNL     1      31.135   9.105  14.371  1.00  0.00     0.006 A 
ATOM     10  C   UNL     1      33.117  11.060  14.547  1.00  0.00     0.000 A 
ATOM     11  C   UNL     1      32.382   8.791  14.915  1.00  0.00     0.000 A 
ATOM     12  C   UNL     1      33.372   9.768  15.004  1.00  0.00     0.000 A 
ENDBRANCH   1   7
BRANCH   1  13
ATOM     13  C   UNL     1      29.579  11.149  11.833  1.00  0.00     0.057 A 
ATOM     14  C   UNL     1      29.981  10.340  10.806  1.00  0.00    -0.085 A 
ATOM     15  C   UNL     1      29.139  12.563  11.659  1.00  0.00     0.341 A 
ATOM     16  C   UNL     1      29.983  11.010   9.462  1.00  0.00     0.010 A 
ATOM     17  O   UNL     1      29.223  13.120  10.398  1.00  0.00    -0.423 OA
ATOM     18  O   UNL     1      28.703  13.245  12.586  1.00  0.00    -0.246 OA
ATOM     19  C   UNL     1      30.360  10.325   8.290  1.00  0.00     0.011 A 
ATOM     20  C   UNL     1      29.623  12.343   9.311  1.00  0.00     0.137 A 
ATOM     21  C   UNL     1      30.373  10.952   7.037  1.00  0.00     0.001 A 
ATOM     22  C   UNL     1      29.630  12.990   8.069  1.00  0.00     0.048 A 
ATOM     23  C   UNL     1      30.007  12.290   6.928  1.00  0.00     0.004 A 
ATOM     24  O   UNL     1      30.347   9.126  10.898  1.00  0.00    -0.872 OA
ENDBRANCH   1  13
TORSDOF 3
ENDMDL
MODEL 11
REMARK VINA RESULT:    -7.244      3.915      5.934
REMARK INTER + INTRA:          -9.625
REMARK INTER:                  -9.552
REMARK INTRA:                  -0.073
REMARK UNBOUND:                -1.111
REMARK SMILES CC(=O)N[C@@H](c1ccccc1)c1c([O-])c2ccccc2oc1=O
REMARK SMILES IDX 5 1 4 2 2 3 3 4 1 5 6 7 7 8 11 9 8 10 10 11 9 12 12 13 13 14
REMARK SMILES IDX 22 15 15 16 21 17 23 18 16 19 20 20 17 21 19 22 18 23 14 24
REMARK H PARENT 4 6
ROOT
ATOM      1  C   UNL     1      30.211  13.363   9.901  1.00  0.00     0.149 C 
ENDROOT
BRANCH   1   2
ATOM      2  N   UNL     1      28.895  13.960  10.044  1.00  0.00    -0.345 N 
ATOM      3  C   UNL     1      28.064  13.796  11.108  1.00  0.00     0.217 C 
ATOM      4  O   UNL     1      28.322  13.132  12.108  1.00  0.00    -0.275 OA
ATOM      5  C   UNL     1      26.771  14.553  10.970  1.00  0.00     0.114 C 
ATOM      6  H   UNL     1      28.660  14.585   9.263  1.00  0.00     0.164 HD
ENDBRANCH   1   2
BRANCH   1   7
ATOM      7  C   UNL     1      30.095  12.023   9.172  1.00  0.00    -0.021 A 
ATOM      8  C   UNL     1      29.971  10.816   9.882  1.00  0.00     0.006 A 
ATOM      9  C   UNL     1      30.123  11.975   7.770  1.00  0.00     0.006 A 
ATOM     10  C   UNL     1      29.867   9.598   9.207  1.00  0.00     0.000 A 
ATOM     11  C   UNL     1      30.021  10.756   7.096  1.00  0.00     0.000 A 
ATOM     12  C   UNL     1      29.892   9.569   7.814  1.00  0.00     0.000 A 
ENDBRANCH   1   7
BRANCH   1  13
ATOM     13  C   UNL     1      31.180  14.333   9.200  1.00  0.00     0.057 A 
ATOM     14  C   UNL     1      32.543  14.303   9.300  1.00  0.00    -0.085 A 
ATOM     15  C   UNL     1      30.425  15.311   8.364  1.00  0.00     0.341 A 
ATOM     16  C   UNL     1      33.240  15.379   8.519  1.00  0.00     0.010 A 
ATOM     17  O   UNL     1      31.138  16.303   7.720  1.00  0.00    -0.423 OA
ATOM     18  O   UNL     1      29.203  15.266   8.224  1.00  0.00    -0.246 OA
ATOM     19  C   UNL     1      34.644  15.495   8.500  1.00  0.00     0.011 A 
ATOM     20  C   UNL     1      32.531  16.322   7.784  1.00  0.00     0.137 A 
ATOM     21  C   UNL     1      35.294  16.506   7.780  1.00  0.00     0.001 A 
ATOM     22  C   UNL     1      33.162  17.341   7.059  1.00  0.00     0.048 A 
ATOM     23  C   UNL     1      34.549  17.432   7.057  1.00  0.00     0.004 A 
ATOM     24  O   UNL     1      33.233  13.481   9.982  1.00  0.00    -0.872 OA
ENDBRANCH   1  13
TORSDOF 3
ENDMDL
MODEL 12
REMARK VINA RESULT:    -7.190      3.537      5.800
REMARK INTER + INTRA:          -9.562
REMARK INTER:                  -8.613
REMARK INTRA:                  -0.949
REMARK UNBOUND:                -1.111
REMARK SMILES CC(=O)N[C@@H](c1ccccc1)c1c([O-])c2ccccc2oc1=O
REMARK SMILES IDX 5 1 4 2 2 3 3 4 1 5 6 7 7 8 11 9 8 10 10 11 9 12 12 13 13 14
REMARK SMILES IDX 22 15 15 16 21 17 23 18 16 19 20 20 17 21 19 22 18 23 14 24
REMARK H PARENT 4 6
ROOT
ATOM      1  C   UNL     1      30.579  13.036  11.022  1.00  0.00     0.149 C 
ENDROOT
BRANCH   1   2
ATOM      2  N   UNL     1      30.774  11.687  10.517  1.00  0.00    -0.345 N 
ATOM      3  C   UNL     1      29.871  10.674  10.602  1.00  0.00     0.217 C 
ATOM      4  O   UNL     1      28.753  10.765  11.102  1.00  0.00    -0.275 OA
ATOM      5  C   UNL     1      30.357   9.395   9.976  1.00  0.00     0.114 C 
ATOM      6  H   UNL     1      31.669  11.578  10.025  1.00  0.00     0.164 HD
ENDBRANCH   1   2
BRANCH   1   7
ATOM      7  C   UNL     1      31.105  13.134  12.454  1.00  0.00    -0.021 A 
ATOM      8  C   UNL     1      31.962  12.153  12.985  1.00  0.00     0.006 A 
ATOM      9  C   UNL     1      30.729  14.209  13.275  1.00  0.00     0.006 A 
ATOM     10  C   UNL     1      32.436  12.252  14.294  1.00  0.00     0.000 A 
ATOM     11  C   UNL     1      31.202  14.306  14.585  1.00  0.00     0.000 A 
ATOM     12  C   UNL     1      32.056  13.329  15.094  1.00  0.00     0.000 A 
ENDBRANCH   1   7
BRANCH   1  13
ATOM     13  C   UNL     1      31.227  14.070  10.083  1.00  0.00     0.057 A 
ATOM     14  C   UNL     1      32.555  14.128   9.763  1.00  0.00    -0.085 A 
ATOM     15  C   UNL     1      30.196  15.001   9.541  1.00  0.00     0.341 A 
ATOM     16  C   UNL     1      32.914  15.252   8.834  1.00  0.00     0.010 A 
ATOM     17  O   UNL     1      30.617  16.041   8.735  1.00  0.00    -0.423 OA
ATOM     18  O   UNL     1      28.994  14.878   9.779  1.00  0.00    -0.246 OA
ATOM     19  C   UNL     1      34.236  15.458   8.391  1.00  0.00     0.011 A 
ATOM     20  C   UNL     1      31.960  16.150   8.373  1.00  0.00     0.137 A 
ATOM     21  C   UNL     1      34.573  16.512   7.532  1.00  0.00     0.001 A 
ATOM     22  C   UNL     1      32.276  17.211   7.515  1.00  0.00     0.048 A 
ATOM     23  C   UNL     1      33.588  17.392   7.094  1.00  0.00     0.004 A 
ATOM     24  O   UNL     1      33.469  13.349  10.182  1.00  0.00    -0.872 OA
ENDBRANCH   1  13
TORSDOF 3
ENDMDL
MODEL 13
REMARK VINA RESULT:    -7.180      2.042      5.385
REMARK INTER + INTRA:          -9.551
REMARK INTER:                  -8.330
REMARK INTRA:                  -1.221
REMARK UNBOUND:                -1.111
REMARK SMILES CC(=O)N[C@@H](c1ccccc1)c1c([O-])c2ccccc2oc1=O
REMARK SMILES IDX 5 1 4 2 2 3 3 4 1 5 6 7 7 8 11 9 8 10 10 11 9 12 12 13 13 14
REMARK SMILES IDX 22 15 15 16 21 17 23 18 16 19 20 20 17 21 19 22 18 23 14 24
REMARK H PARENT 4 6
ROOT
ATOM      1  C   UNL     1      29.889  11.015  11.868  1.00  0.00     0.149 C 
ENDROOT
BRANCH   1   2
ATOM      2  N   UNL     1      29.315  12.349  11.907  1.00  0.00    -0.345 N 
ATOM      3  C   UNL     1      29.087  13.143  10.826  1.00  0.00     0.217 C 
ATOM      4  O   UNL     1      29.317  12.831   9.661  1.00  0.00    -0.275 OA
ATOM      5  C   UNL     1      28.472  14.468  11.186  1.00  0.00     0.114 C 
ATOM      6  H   UNL     1      29.039  12.630  12.855  1.00  0.00     0.164 HD
ENDBRANCH   1   2
BRANCH   1   7
ATOM      7  C   UNL     1      30.542  10.692  13.213  1.00  0.00    -0.021 A 
ATOM      8  C   UNL     1      30.536  11.622  14.268  1.00  0.00     0.006 A 
ATOM      9  C   UNL     1      31.173   9.455  13.414  1.00  0.00     0.006 A 
ATOM     10  C   UNL     1      31.136  11.317  15.490  1.00  0.00     0.000 A 
ATOM     11  C   UNL     1      31.775   9.152  14.637  1.00  0.00     0.000 A 
ATOM     12  C   UNL     1      31.755  10.082  15.675  1.00  0.00     0.000 A 
ENDBRANCH   1   7
BRANCH   1  13
ATOM     13  C   UNL     1      28.828   9.975  11.463  1.00  0.00     0.057 A 
ATOM     14  C   UNL     1      27.632   9.775  12.096  1.00  0.00    -0.085 A 
ATOM     15  C   UNL     1      29.271   9.219  10.257  1.00  0.00     0.341 A 
ATOM     16  C   UNL     1      26.795   8.682  11.494  1.00  0.00     0.010 A 
ATOM     17  O   UNL     1      28.467   8.194   9.800  1.00  0.00    -0.423 OA
ATOM     18  O   UNL     1      30.314   9.474   9.655  1.00  0.00    -0.246 OA
ATOM     19  C   UNL     1      25.529   8.344  12.012  1.00  0.00     0.011 A 
ATOM     20  C   UNL     1      27.235   7.944  10.403  1.00  0.00     0.137 A 
ATOM     21  C   UNL     1      24.752   7.318  11.458  1.00  0.00     0.001 A 
ATOM     22  C   UNL     1      26.475   6.913   9.835  1.00  0.00     0.048 A 
ATOM     23  C   UNL     1      25.228   6.600  10.366  1.00  0.00     0.004 A 
ATOM     24  O   UNL     1      27.200  10.403  13.113  1.00  0.00    -0.872 OA
ENDBRANCH   1  13
TORSDOF 3
ENDMDL
MODEL 14
REMARK VINA RESULT:    -7.172      4.573      7.701
REMARK INTER + INTRA:          -9.541
REMARK INTER:                  -8.458
REMARK INTRA:                  -1.084
REMARK UNBOUND:                -1.111
REMARK SMILES CC(=O)N[C@@H](c1ccccc1)c1c([O-])c2ccccc2oc1=O
REMARK SMILES IDX 5 1 4 2 2 3 3 4 1 5 6 7 7 8 11 9 8 10 10 11 9 12 12 13 13 14
REMARK SMILES IDX 22 15 15 16 21 17 23 18 16 19 20 20 17 21 19 22 18 23 14 24
REMARK H PARENT 4 6
ROOT
ATOM      1  C   UNL     1      31.700  13.892   9.093  1.00  0.00     0.149 C 
ENDROOT
BRANCH   1   2
ATOM      2  N   UNL     1      30.692  13.531   8.111  1.00  0.00    -0.345 N 
ATOM      3  C   UNL     1      30.532  12.299   7.558  1.00  0.00     0.217 C 
ATOM      4  O   UNL     1      31.211  11.312   7.827  1.00  0.00    -0.275 OA
ATOM      5  C   UNL     1      29.390  12.234   6.580  1.00  0.00     0.114 C 
ATOM      6  H   UNL     1      30.051  14.307   7.904  1.00  0.00     0.164 HD
ENDBRANCH   1   2
BRANCH   1   7
ATOM      7  C   UNL     1      32.420  15.167   8.651  1.00  0.00    -0.021 A 
ATOM      8  C   UNL     1      33.813  15.302   8.788  1.00  0.00     0.006 A 
ATOM      9  C   UNL     1      31.694  16.238   8.107  1.00  0.00     0.006 A 
ATOM     10  C   UNL     1      34.460  16.470   8.383  1.00  0.00     0.000 A 
ATOM     11  C   UNL     1      32.342  17.407   7.704  1.00  0.00     0.000 A 
ATOM     12  C   UNL     1      33.724  17.523   7.841  1.00  0.00     0.000 A 
ENDBRANCH   1   7
BRANCH   1  13
ATOM     13  C   UNL     1      31.078  14.021  10.495  1.00  0.00     0.057 A 
ATOM     14  C   UNL     1      29.827  14.504  10.766  1.00  0.00    -0.085 A 
ATOM     15  C   UNL     1      32.024  13.521  11.534  1.00  0.00     0.341 A 
ATOM     16  C   UNL     1      29.484  14.531  12.228  1.00  0.00     0.010 A 
ATOM     17  O   UNL     1      31.652  13.632  12.860  1.00  0.00    -0.423 OA
ATOM     18  O   UNL     1      33.111  13.014  11.259  1.00  0.00    -0.246 OA
ATOM     19  C   UNL     1      28.234  14.989  12.690  1.00  0.00     0.011 A 
ATOM     20  C   UNL     1      30.387  14.114  13.197  1.00  0.00     0.137 A 
ATOM     21  C   UNL     1      27.917  15.024  14.054  1.00  0.00     0.001 A 
ATOM     22  C   UNL     1      30.091  14.143  14.566  1.00  0.00     0.048 A 
ATOM     23  C   UNL     1      28.849  14.600  14.995  1.00  0.00     0.004 A 
ATOM     24  O   UNL     1      28.978  14.924   9.918  1.00  0.00    -0.872 OA
ENDBRANCH   1  13
TORSDOF 3
ENDMDL
MODEL 15
REMARK VINA RESULT:    -7.171      3.529      6.880
REMARK INTER + INTRA:          -9.539
REMARK INTER:                  -8.581
REMARK INTRA:                  -0.959
REMARK UNBOUND:                -1.111
REMARK SMILES CC(=O)N[C@@H](c1ccccc1)c1c([O-])c2ccccc2oc1=O
REMARK SMILES IDX 5 1 4 2 2 3 3 4 1 5 6 7 7 8 11 9 8 10 10 11 9 12 12 13 13 14
REMARK SMILES IDX 22 15 15 16 21 17 23 18 16 19 20 20 17 21 19 22 18 23 14 24
REMARK H PARENT 4 6
ROOT
ATOM      1  C   UNL     1      32.748  13.740  10.595  1.00  0.00     0.149 C 
ENDROOT
BRANCH   1   2
ATOM      2  N   UNL     1      34.077  13.192  10.383  1.00  0.00    -0.345 N 
ATOM      3  C   UNL     1      35.116  13.280  11.257  1.00  0.00     0.217 C 
ATOM      4  O   UNL     1      35.067  13.822  12.358  1.00  0.00    -0.275 OA
ATOM      5  C   UNL     1      36.364  12.603  10.760  1.00  0.00     0.114 C 
ATOM      6  H   UNL     1      34.149  12.666   9.504  1.00  0.00     0.164 HD
ENDBRANCH   1   2
BRANCH   1   7
ATOM      7  C   UNL     1      32.416  14.738   9.484  1.00  0.00    -0.021 A 
ATOM      8  C   UNL     1      31.097  15.171   9.263  1.00  0.00     0.006 A 
ATOM      9  C   UNL     1      33.432  15.235   8.652  1.00  0.00     0.006 A 
ATOM     10  C   UNL     1      30.805  16.081   8.246  1.00  0.00     0.000 A 
ATOM     11  C   UNL     1      33.139  16.144   7.634  1.00  0.00     0.000 A 
ATOM     12  C   UNL     1      31.827  16.568   7.432  1.00  0.00     0.000 A 
ENDBRANCH   1   7
BRANCH   1  13
ATOM     13  C   UNL     1      31.703  12.614  10.707  1.00  0.00     0.057 A 
ATOM     14  C   UNL     1      31.363  11.746   9.707  1.00  0.00    -0.085 A 
ATOM     15  C   UNL     1      31.119  12.579  12.079  1.00  0.00     0.341 A 
ATOM     16  C   UNL     1      30.302  10.755  10.090  1.00  0.00     0.010 A 
ATOM     17  O   UNL     1      30.110  11.672  12.333  1.00  0.00    -0.423 OA
ATOM     18  O   UNL     1      31.502  13.317  12.986  1.00  0.00    -0.246 OA
ATOM     19  C   UNL     1      29.834   9.779   9.187  1.00  0.00     0.011 A 
ATOM     20  C   UNL     1      29.722  10.759  11.352  1.00  0.00     0.137 A 
ATOM     21  C   UNL     1      28.837   8.861   9.541  1.00  0.00     0.001 A 
ATOM     22  C   UNL     1      28.722   9.851  11.725  1.00  0.00     0.048 A 
ATOM     23  C   UNL     1      28.279   8.898  10.814  1.00  0.00     0.004 A 
ATOM     24  O   UNL     1      31.843  11.722   8.530  1.00  0.00    -0.872 OA
ENDBRANCH   1  13
TORSDOF 3
ENDMDL
MODEL 16
REMARK VINA RESULT:    -7.162      3.432      5.088
REMARK INTER + INTRA:          -9.529
REMARK INTER:                  -9.111
REMARK INTRA:                  -0.418
REMARK UNBOUND:                -1.111
REMARK SMILES CC(=O)N[C@@H](c1ccccc1)c1c([O-])c2ccccc2oc1=O
REMARK SMILES IDX 5 1 4 2 2 3 3 4 1 5 6 7 7 8 11 9 8 10 10 11 9 12 12 13 13 14
REMARK SMILES IDX 22 15 15 16 21 17 23 18 16 19 20 20 17 21 19 22 18 23 14 24
REMARK H PARENT 4 6
ROOT
ATOM      1  C   UNL     1      31.073  12.943  11.205  1.00  0.00     0.149 C 
ENDROOT
BRANCH   1   2
ATOM      2  N   UNL     1      30.081  13.467  12.129  1.00  0.00    -0.345 N 
ATOM      3  C   UNL     1      30.333  13.912  13.389  1.00  0.00     0.217 C 
ATOM      4  O   UNL     1      31.442  13.950  13.915  1.00  0.00    -0.275 OA
ATOM      5  C   UNL     1      29.101  14.407  14.098  1.00  0.00     0.114 C 
ATOM      6  H   UNL     1      29.145  13.523  11.710  1.00  0.00     0.164 HD
ENDBRANCH   1   2
BRANCH   1   7
ATOM      7  C   UNL     1      30.516  11.709  10.494  1.00  0.00    -0.021 A 
ATOM      8  C   UNL     1      30.898  11.392   9.178  1.00  0.00     0.006 A 
ATOM      9  C   UNL     1      29.598  10.870  11.145  1.00  0.00     0.006 A 
ATOM     10  C   UNL     1      30.384  10.263   8.538  1.00  0.00     0.000 A 
ATOM     11  C   UNL     1      29.082   9.743  10.502  1.00  0.00     0.000 A 
ATOM     12  C   UNL     1      29.476   9.439   9.201  1.00  0.00     0.000 A 
ENDBRANCH   1   7
BRANCH   1  13
ATOM     13  C   UNL     1      31.534  14.033  10.220  1.00  0.00     0.057 A 
ATOM     14  C   UNL     1      32.814  14.206   9.771  1.00  0.00    -0.085 A 
ATOM     15  C   UNL     1      30.379  14.875   9.795  1.00  0.00     0.341 A 
ATOM     16  C   UNL     1      32.982  15.360   8.825  1.00  0.00     0.010 A 
ATOM     17  O   UNL     1      30.628  15.950   8.964  1.00  0.00    -0.423 OA
ATOM     18  O   UNL     1      29.222  14.648  10.148  1.00  0.00    -0.246 OA
ATOM     19  C   UNL     1      34.231  15.680   8.256  1.00  0.00     0.011 A 
ATOM     20  C   UNL     1      31.914  16.175   8.472  1.00  0.00     0.137 A 
ATOM     21  C   UNL     1      34.390  16.763   7.382  1.00  0.00     0.001 A 
ATOM     22  C   UNL     1      32.051  17.263   7.601  1.00  0.00     0.048 A 
ATOM     23  C   UNL     1      33.296  17.557   7.054  1.00  0.00     0.004 A 
ATOM     24  O   UNL     1      33.828  13.506  10.088  1.00  0.00    -0.872 OA
ENDBRANCH   1  13
TORSDOF 3
ENDMDL
MODEL 17
REMARK VINA RESULT:    -7.080      3.866      7.235
REMARK INTER + INTRA:          -9.433
REMARK INTER:                  -8.290
REMARK INTRA:                  -1.143
REMARK UNBOUND:                -1.111
REMARK SMILES CC(=O)N[C@@H](c1ccccc1)c1c([O-])c2ccccc2oc1=O
REMARK SMILES IDX 5 1 4 2 2 3 3 4 1 5 6 7 7 8 11 9 8 10 10 11 9 12 12 13 13 14
REMARK SMILES IDX 22 15 15 16 21 17 23 18 16 19 20 20 17 21 19 22 18 23 14 24
REMARK H PARENT 4 6
ROOT
ATOM      1  C   UNL     1      31.579  11.879  14.228  1.00  0.00     0.149 C 
ENDROOT
BRANCH   1   2
ATOM      2  N   UNL     1      31.901  13.055  15.018  1.00  0.00    -0.345 N 
ATOM      3  C   UNL     1      31.331  13.389  16.207  1.00  0.00     0.217 C 
ATOM      4  O   UNL     1      30.474  12.728  16.788  1.00  0.00    -0.275 OA
ATOM      5  C   UNL     1      31.882  14.662  16.790  1.00  0.00     0.114 C 
ATOM      6  H   UNL     1      32.665  13.606  14.608  1.00  0.00     0.164 HD
ENDBRANCH   1   2
BRANCH   1   7
ATOM      7  C   UNL     1      31.671  12.214  12.739  1.00  0.00    -0.021 A 
ATOM      8  C   UNL     1      30.751  11.687  11.815  1.00  0.00     0.006 A 
ATOM      9  C   UNL     1      32.692  13.052  12.263  1.00  0.00     0.006 A 
ATOM     10  C   UNL     1      30.844  11.999  10.458  1.00  0.00     0.000 A 
ATOM     11  C   UNL     1      32.785  13.361  10.905  1.00  0.00     0.000 A 
ATOM     12  C   UNL     1      31.862  12.836  10.003  1.00  0.00     0.000 A 
ENDBRANCH   1   7
BRANCH   1  13
ATOM     13  C   UNL     1      32.478  10.692  14.622  1.00  0.00     0.057 A 
ATOM     14  C   UNL     1      33.802  10.776  14.953  1.00  0.00    -0.085 A 
ATOM     15  C   UNL     1      31.697   9.422  14.619  1.00  0.00     0.341 A 
ATOM     16  C   UNL     1      34.437   9.456  15.283  1.00  0.00     0.010 A 
ATOM     17  O   UNL     1      32.369   8.244  14.881  1.00  0.00    -0.423 OA
ATOM     18  O   UNL     1      30.487   9.383  14.398  1.00  0.00    -0.246 OA
ATOM     19  C   UNL     1      35.793   9.355  15.655  1.00  0.00     0.011 A 
ATOM     20  C   UNL     1      33.720   8.268  15.227  1.00  0.00     0.137 A 
ATOM     21  C   UNL     1      36.389   8.122  15.952  1.00  0.00     0.001 A 
ATOM     22  C   UNL     1      34.297   7.025  15.518  1.00  0.00     0.048 A 
ATOM     23  C   UNL     1      35.637   6.954  15.883  1.00  0.00     0.004 A 
ATOM     24  O   UNL     1      34.507  11.834  14.990  1.00  0.00    -0.872 OA
ENDBRANCH   1  13
TORSDOF 3
ENDMDL
MODEL 18
REMARK VINA RESULT:    -7.042      2.371      5.160
REMARK INTER + INTRA:          -9.388
REMARK INTER:                  -8.423
REMARK INTRA:                  -0.964
REMARK UNBOUND:                -1.111
REMARK SMILES CC(=O)N[C@@H](c1ccccc1)c1c([O-])c2ccccc2oc1=O
REMARK SMILES IDX 5 1 4 2 2 3 3 4 1 5 6 7 7 8 11 9 8 10 10 11 9 12 12 13 13 14
REMARK SMILES IDX 22 15 15 16 21 17 23 18 16 19 20 20 17 21 19 22 18 23 14 24
REMARK H PARENT 4 6
ROOT
ATOM      1  C   UNL     1      28.348  11.348  13.573  1.00  0.00     0.149 C 
ENDROOT
BRANCH   1   2
ATOM      2  N   UNL     1      29.794  11.215  13.624  1.00  0.00    -0.345 N 
ATOM      3  C   UNL     1      30.491  10.523  14.565  1.00  0.00     0.217 C 
ATOM      4  O   UNL     1      29.990   9.897  15.495  1.00  0.00    -0.275 OA
ATOM      5  C   UNL     1      31.979  10.560  14.344  1.00  0.00     0.114 C 
ATOM      6  H   UNL     1      30.258  11.664  12.825  1.00  0.00     0.164 HD
ENDBRANCH   1   2
BRANCH   1   7
ATOM      7  C   UNL     1      27.974  12.745  13.076  1.00  0.00    -0.021 A 
ATOM      8  C   UNL     1      27.802  13.009  11.706  1.00  0.00     0.006 A 
ATOM      9  C   UNL     1      27.804  13.799  13.988  1.00  0.00     0.006 A 
ATOM     10  C   UNL     1      27.461  14.288  11.263  1.00  0.00     0.000 A 
ATOM     11  C   UNL     1      27.465  15.078  13.543  1.00  0.00     0.000 A 
ATOM     12  C   UNL     1      27.293  15.323  12.182  1.00  0.00     0.000 A 
ENDBRANCH   1   7
BRANCH   1  13
ATOM     13  C   UNL     1      27.726  10.231  12.716  1.00  0.00     0.057 A 
ATOM     14  C   UNL     1      28.330   9.616  11.654  1.00  0.00    -0.085 A 
ATOM     15  C   UNL     1      26.365   9.884  13.218  1.00  0.00     0.341 A 
ATOM     16  C   UNL     1      27.485   8.567  10.990  1.00  0.00     0.010 A 
ATOM     17  O   UNL     1      25.632   8.946  12.517  1.00  0.00    -0.423 OA
ATOM     18  O   UNL     1      25.876  10.393  14.226  1.00  0.00    -0.246 OA
ATOM     19  C   UNL     1      27.950   7.826   9.885  1.00  0.00     0.011 A 
ATOM     20  C   UNL     1      26.197   8.284  11.427  1.00  0.00     0.137 A 
ATOM     21  C   UNL     1      27.158   6.856   9.259  1.00  0.00     0.001 A 
ATOM     22  C   UNL     1      25.388   7.319  10.814  1.00  0.00     0.048 A 
ATOM     23  C   UNL     1      25.872   6.602   9.725  1.00  0.00     0.004 A 
ATOM     24  O   UNL     1      29.492   9.861  11.199  1.00  0.00    -0.872 OA
ENDBRANCH   1  13
TORSDOF 3
ENDMDL
MODEL 19
REMARK VINA RESULT:    -6.995      4.637      6.801
REMARK INTER + INTRA:          -9.333
REMARK INTER:                  -9.281
REMARK INTRA:                  -0.051
REMARK UNBOUND:                -1.111
REMARK SMILES CC(=O)N[C@@H](c1ccccc1)c1c([O-])c2ccccc2oc1=O
REMARK SMILES IDX 5 1 4 2 2 3 3 4 1 5 6 7 7 8 11 9 8 10 10 11 9 12 12 13 13 14
REMARK SMILES IDX 22 15 15 16 21 17 23 18 16 19 20 20 17 21 19 22 18 23 14 24
REMARK H PARENT 4 6
ROOT
ATOM      1  C   UNL     1      31.629  13.573  10.043  1.00  0.00     0.149 C 
ENDROOT
BRANCH   1   2
ATOM      2  N   UNL     1      30.629  14.412  10.679  1.00  0.00    -0.345 N 
ATOM      3  C   UNL     1      29.869  14.061  11.752  1.00  0.00     0.217 C 
ATOM      4  O   UNL     1      29.939  12.988  12.343  1.00  0.00    -0.275 OA
ATOM      5  C   UNL     1      28.929  15.151  12.192  1.00  0.00     0.114 C 
ATOM      6  H   UNL     1      30.583  15.351  10.265  1.00  0.00     0.164 HD
ENDBRANCH   1   2
BRANCH   1   7
ATOM      7  C   UNL     1      31.009  12.841   8.851  1.00  0.00    -0.021 A 
ATOM      8  C   UNL     1      29.876  13.350   8.193  1.00  0.00     0.006 A 
ATOM      9  C   UNL     1      31.561  11.633   8.397  1.00  0.00     0.006 A 
ATOM     10  C   UNL     1      29.317  12.674   7.107  1.00  0.00     0.000 A 
ATOM     11  C   UNL     1      31.000  10.956   7.313  1.00  0.00     0.000 A 
ATOM     12  C   UNL     1      29.880  11.477   6.667  1.00  0.00     0.000 A 
ENDBRANCH   1   7
BRANCH   1  13
ATOM     13  C   UNL     1      32.867  14.399   9.648  1.00  0.00     0.057 A 
ATOM     14  C   UNL     1      34.164  14.068   9.928  1.00  0.00    -0.085 A 
ATOM     15  C   UNL     1      32.462  15.616   8.886  1.00  0.00     0.341 A 
ATOM     16  C   UNL     1      35.172  15.066   9.434  1.00  0.00     0.010 A 
ATOM     17  O   UNL     1      33.447  16.510   8.516  1.00  0.00    -0.423 OA
ATOM     18  O   UNL     1      31.294  15.849   8.574  1.00  0.00    -0.246 OA
ATOM     19  C   UNL     1      36.556  14.882   9.627  1.00  0.00     0.011 A 
ATOM     20  C   UNL     1      34.788  16.224   8.773  1.00  0.00     0.137 A 
ATOM     21  C   UNL     1      37.497  15.818   9.177  1.00  0.00     0.001 A 
ATOM     22  C   UNL     1      35.712  17.173   8.315  1.00  0.00     0.048 A 
ATOM     23  C   UNL     1      37.072  16.967   8.519  1.00  0.00     0.004 A 
ATOM     24  O   UNL     1      34.563  13.036  10.556  1.00  0.00    -0.872 OA
ENDBRANCH   1  13
TORSDOF 3
ENDMDL
MODEL 20
REMARK VINA RESULT:    -6.872      4.132      7.088
REMARK INTER + INTRA:          -9.189
REMARK INTER:                  -8.212
REMARK INTRA:                  -0.976
REMARK UNBOUND:                -1.111
REMARK SMILES CC(=O)N[C@@H](c1ccccc1)c1c([O-])c2ccccc2oc1=O
REMARK SMILES IDX 5 1 4 2 2 3 3 4 1 5 6 7 7 8 11 9 8 10 10 11 9 12 12 13 13 14
REMARK SMILES IDX 22 15 15 16 21 17 23 18 16 19 20 20 17 21 19 22 18 23 14 24
REMARK H PARENT 4 6
ROOT
ATOM      1  C   UNL     1      31.645  13.125   9.440  1.00  0.00     0.149 C 
ENDROOT
BRANCH   1   2
ATOM      2  N   UNL     1      31.212  12.327   8.306  1.00  0.00    -0.345 N 
ATOM      3  C   UNL     1      30.822  11.025   8.359  1.00  0.00     0.217 C 
ATOM      4  O   UNL     1      30.763  10.348   9.382  1.00  0.00    -0.275 OA
ATOM      5  C   UNL     1      30.418  10.474   7.019  1.00  0.00     0.114 C 
ATOM      6  H   UNL     1      31.175  12.870   7.435  1.00  0.00     0.164 HD
ENDBRANCH   1   2
BRANCH   1   7
ATOM      7  C   UNL     1      32.425  14.345   8.948  1.00  0.00    -0.021 A 
ATOM      8  C   UNL     1      31.869  15.239   8.016  1.00  0.00     0.006 A 
ATOM      9  C   UNL     1      33.727  14.588   9.414  1.00  0.00     0.006 A 
ATOM     10  C   UNL     1      32.591  16.348   7.572  1.00  0.00     0.000 A 
ATOM     11  C   UNL     1      34.449  15.697   8.968  1.00  0.00     0.000 A 
ATOM     12  C   UNL     1      33.881  16.577   8.049  1.00  0.00     0.000 A 
ENDBRANCH   1   7
BRANCH   1  13
ATOM     13  C   UNL     1      30.447  13.511  10.327  1.00  0.00     0.057 A 
ATOM     14  C   UNL     1      29.185  13.791   9.878  1.00  0.00    -0.085 A 
ATOM     15  C   UNL     1      30.842  13.516  11.765  1.00  0.00     0.341 A 
ATOM     16  C   UNL     1      28.214  14.152  10.965  1.00  0.00     0.010 A 
ATOM     17  O   UNL     1      29.902  13.912  12.697  1.00  0.00    -0.423 OA
ATOM     18  O   UNL     1      31.961  13.179  12.151  1.00  0.00    -0.246 OA
ATOM     19  C   UNL     1      26.867  14.462  10.686  1.00  0.00     0.011 A 
ATOM     20  C   UNL     1      28.599  14.207  12.298  1.00  0.00     0.137 A 
ATOM     21  C   UNL     1      25.963  14.809  11.699  1.00  0.00     0.001 A 
ATOM     22  C   UNL     1      27.711  14.553  13.325  1.00  0.00     0.048 A 
ATOM     23  C   UNL     1      26.387  14.855  13.022  1.00  0.00     0.004 A 
ATOM     24  O   UNL     1      28.794  13.782   8.669  1.00  0.00    -0.872 OA
ENDBRANCH   1  13
TORSDOF 3
ENDMDL
