MODEL 1
REMARK VINA RESULT:    -8.937      0.000      0.000
REMARK INTER + INTRA:         -11.379
REMARK INTER:                 -10.504
REMARK INTRA:                  -0.874
REMARK UNBOUND:                -0.874
REMARK SMILES CC(=O)N[C@H](c1cccc(Br)c1)c1c([O-])c2ccccc2oc1=O
REMARK SMILES IDX 5 1 4 2 2 3 3 4 1 5 6 7 12 8 7 9 10 10 8 11 9 12 11 13 13 14
REMARK SMILES IDX 14 15 23 16 16 17 22 18 24 19 17 20 21 21 18 22 20 23 19 24
REMARK SMILES IDX 15 25
REMARK H PARENT 4 6
ROOT
ATOM      1  C   UNL     1      30.944  14.966   9.267  1.00  0.00     0.149 C 
ENDROOT
BRANCH   1   2
ATOM      2  N   UNL     1      30.639  14.767  10.672  1.00  0.00    -0.345 N 
ATOM      3  C   UNL     1      29.392  14.756  11.217  1.00  0.00     0.217 C 
ATOM      4  O   UNL     1      28.351  14.928  10.590  1.00  0.00    -0.275 OA
ATOM      5  C   UNL     1      29.398  14.545  12.706  1.00  0.00     0.114 C 
ATOM      6  H   UNL     1      31.485  14.682  11.251  1.00  0.00     0.164 HD
ENDBRANCH   1   2
BRANCH   1   7
ATOM      7  C   UNL     1      30.520  13.734   8.468  1.00  0.00    -0.020 A 
ATOM      8  C   UNL     1      30.604  12.455   9.041  1.00  0.00     0.022 A 
ATOM      9  C   UNL     1      30.053  13.850   7.146  1.00  0.00     0.006 A 
ATOM     10  C   UNL     1      30.221  11.331   8.310  1.00  0.00     0.018 A 
ATOM     11  C   UNL     1      29.670  12.722   6.420  1.00  0.00     0.002 A 
ATOM     12  C   UNL     1      29.753  11.457   7.002  1.00  0.00     0.016 A 
ATOM     13  Br  UNL     1      30.336   9.614   9.096  1.00  0.00    -0.051 Br
ENDBRANCH   1   7
BRANCH   1  14
ATOM     14  C   UNL     1      32.430  15.313   9.070  1.00  0.00     0.057 A 
ATOM     15  C   UNL     1      33.481  14.649   9.642  1.00  0.00    -0.085 A 
ATOM     16  C   UNL     1      32.578  16.497   8.177  1.00  0.00     0.341 A 
ATOM     17  C   UNL     1      34.828  15.195   9.270  1.00  0.00     0.010 A 
ATOM     18  O   UNL     1      33.854  16.913   7.851  1.00  0.00    -0.423 OA
ATOM     19  O   UNL     1      31.614  17.115   7.727  1.00  0.00    -0.246 OA
ATOM     20  C   UNL     1      36.022  14.639   9.771  1.00  0.00     0.011 A 
ATOM     21  C   UNL     1      34.964  16.274   8.404  1.00  0.00     0.137 A 
ATOM     22  C   UNL     1      37.279  15.144   9.417  1.00  0.00     0.001 A 
ATOM     23  C   UNL     1      36.211  16.793   8.037  1.00  0.00     0.048 A 
ATOM     24  C   UNL     1      37.375  16.224   8.546  1.00  0.00     0.004 A 
ATOM     25  O   UNL     1      33.407  13.644  10.419  1.00  0.00    -0.872 OA
ENDBRANCH   1  14
TORSDOF 3
ENDMDL
MODEL 2
REMARK VINA RESULT:    -8.454      2.041      2.985
REMARK INTER + INTRA:         -10.812
REMARK INTER:                  -9.843
REMARK INTRA:                  -0.968
REMARK UNBOUND:                -0.874
REMARK SMILES CC(=O)N[C@H](c1cccc(Br)c1)c1c([O-])c2ccccc2oc1=O
REMARK SMILES IDX 5 1 4 2 2 3 3 4 1 5 6 7 12 8 7 9 10 10 8 11 9 12 11 13 13 14
REMARK SMILES IDX 14 15 23 16 16 17 22 18 24 19 17 20 21 21 18 22 20 23 19 24
REMARK SMILES IDX 15 25
REMARK H PARENT 4 6
ROOT
ATOM      1  C   UNL     1      31.093  13.072  10.633  1.00  0.00     0.149 C 
ENDROOT
BRANCH   1   2
ATOM      2  N   UNL     1      32.083  12.688  11.621  1.00  0.00    -0.345 N 
ATOM      3  C   UNL     1      32.089  13.073  12.927  1.00  0.00     0.217 C 
ATOM      4  O   UNL     1      31.257  13.814  13.443  1.00  0.00    -0.275 OA
ATOM      5  C   UNL     1      33.257  12.527  13.701  1.00  0.00     0.114 C 
ATOM      6  H   UNL     1      32.839  12.117  11.221  1.00  0.00     0.164 HD
ENDBRANCH   1   2
BRANCH   1   7
ATOM      7  C   UNL     1      30.688  11.850   9.806  1.00  0.00    -0.020 A 
ATOM      8  C   UNL     1      29.886  10.847  10.373  1.00  0.00     0.022 A 
ATOM      9  C   UNL     1      31.119  11.698   8.476  1.00  0.00     0.006 A 
ATOM     10  C   UNL     1      29.521   9.731   9.620  1.00  0.00     0.018 A 
ATOM     11  C   UNL     1      30.750  10.579   7.728  1.00  0.00     0.002 A 
ATOM     12  C   UNL     1      29.948   9.592   8.300  1.00  0.00     0.016 A 
ATOM     13  Br  UNL     1      28.436   8.388  10.395  1.00  0.00    -0.051 Br
ENDBRANCH   1   7
BRANCH   1  14
ATOM     14  C   UNL     1      31.607  14.229   9.759  1.00  0.00     0.057 A 
ATOM     15  C   UNL     1      32.908  14.420   9.383  1.00  0.00    -0.085 A 
ATOM     16  C   UNL     1      30.488  15.141   9.387  1.00  0.00     0.341 A 
ATOM     17  C   UNL     1      33.127  15.629   8.520  1.00  0.00     0.010 A 
ATOM     18  O   UNL     1      30.766  16.209   8.556  1.00  0.00    -0.423 OA
ATOM     19  O   UNL     1      29.337  14.981   9.791  1.00  0.00    -0.246 OA
ATOM     20  C   UNL     1      34.405  15.983   8.045  1.00  0.00     0.011 A 
ATOM     21  C   UNL     1      32.075  16.454   8.141  1.00  0.00     0.137 A 
ATOM     22  C   UNL     1      34.608  17.106   7.234  1.00  0.00     0.001 A 
ATOM     23  C   UNL     1      32.256  17.581   7.329  1.00  0.00     0.048 A 
ATOM     24  C   UNL     1      33.530  17.908   6.874  1.00  0.00     0.004 A 
ATOM     25  O   UNL     1      33.898  13.680   9.684  1.00  0.00    -0.872 OA
ENDBRANCH   1  14
TORSDOF 3
ENDMDL
MODEL 3
REMARK VINA RESULT:    -8.307      4.873      6.916
REMARK INTER + INTRA:         -10.638
REMARK INTER:                  -9.792
REMARK INTRA:                  -0.846
REMARK UNBOUND:                -0.874
REMARK SMILES CC(=O)N[C@H](c1cccc(Br)c1)c1c([O-])c2ccccc2oc1=O
REMARK SMILES IDX 5 1 4 2 2 3 3 4 1 5 6 7 12 8 7 9 10 10 8 11 9 12 11 13 13 14
REMARK SMILES IDX 14 15 23 16 16 17 22 18 24 19 17 20 21 21 18 22 20 23 19 24
REMARK SMILES IDX 15 25
REMARK H PARENT 4 6
ROOT
ATOM      1  C   UNL     1      29.134  10.273  12.725  1.00  0.00     0.149 C 
ENDROOT
BRANCH   1   2
ATOM      2  N   UNL     1      30.306   9.522  13.136  1.00  0.00    -0.345 N 
ATOM      3  C   UNL     1      30.767   9.412  14.412  1.00  0.00     0.217 C 
ATOM      4  O   UNL     1      30.257   9.950  15.391  1.00  0.00    -0.275 OA
ATOM      5  C   UNL     1      32.015   8.580  14.521  1.00  0.00     0.114 C 
ATOM      6  H   UNL     1      30.806   9.105  12.341  1.00  0.00     0.164 HD
ENDBRANCH   1   2
BRANCH   1   7
ATOM      7  C   UNL     1      27.895   9.379  12.802  1.00  0.00    -0.020 A 
ATOM      8  C   UNL     1      27.496   8.625  11.687  1.00  0.00     0.022 A 
ATOM      9  C   UNL     1      27.126   9.304  13.977  1.00  0.00     0.006 A 
ATOM     10  C   UNL     1      26.364   7.814  11.757  1.00  0.00     0.018 A 
ATOM     11  C   UNL     1      25.994   8.489  14.041  1.00  0.00     0.002 A 
ATOM     12  C   UNL     1      25.611   7.741  12.929  1.00  0.00     0.016 A 
ATOM     13  Br  UNL     1      25.839   6.799  10.249  1.00  0.00    -0.051 Br
ENDBRANCH   1   7
BRANCH   1  14
ATOM     14  C   UNL     1      29.334  10.882  11.326  1.00  0.00     0.057 A 
ATOM     15  C   UNL     1      29.972  10.273  10.281  1.00  0.00    -0.085 A 
ATOM     16  C   UNL     1      28.749  12.252  11.263  1.00  0.00     0.341 A 
ATOM     17  C   UNL     1      30.015  11.094   9.025  1.00  0.00     0.010 A 
ATOM     18  O   UNL     1      28.794  12.926  10.059  1.00  0.00    -0.423 OA
ATOM     19  O   UNL     1      28.235  12.801  12.237  1.00  0.00    -0.246 OA
ATOM     20  C   UNL     1      30.638  10.628   7.851  1.00  0.00     0.011 A 
ATOM     21  C   UNL     1      29.433  12.355   8.957  1.00  0.00     0.137 A 
ATOM     22  C   UNL     1      30.671  11.390   6.677  1.00  0.00     0.001 A 
ATOM     23  C   UNL     1      29.453  13.133   7.794  1.00  0.00     0.048 A 
ATOM     24  C   UNL     1      30.076  12.647   6.648  1.00  0.00     0.004 A 
ATOM     25  O   UNL     1      30.497   9.115  10.288  1.00  0.00    -0.872 OA
ENDBRANCH   1  14
TORSDOF 3
ENDMDL
MODEL 4
REMARK VINA RESULT:    -8.257      1.654      1.931
REMARK INTER + INTRA:         -10.580
REMARK INTER:                  -9.658
REMARK INTRA:                  -0.921
REMARK UNBOUND:                -0.874
REMARK SMILES CC(=O)N[C@H](c1cccc(Br)c1)c1c([O-])c2ccccc2oc1=O
REMARK SMILES IDX 5 1 4 2 2 3 3 4 1 5 6 7 12 8 7 9 10 10 8 11 9 12 11 13 13 14
REMARK SMILES IDX 14 15 23 16 16 17 22 18 24 19 17 20 21 21 18 22 20 23 19 24
REMARK SMILES IDX 15 25
REMARK H PARENT 4 6
ROOT
ATOM      1  C   UNL     1      31.421  13.471  10.602  1.00  0.00     0.149 C 
ENDROOT
BRANCH   1   2
ATOM      2  N   UNL     1      31.744  13.068  11.959  1.00  0.00    -0.345 N 
ATOM      3  C   UNL     1      31.206  13.598  13.091  1.00  0.00     0.217 C 
ATOM      4  O   UNL     1      30.379  14.506  13.116  1.00  0.00    -0.275 OA
ATOM      5  C   UNL     1      31.754  12.986  14.351  1.00  0.00     0.114 C 
ATOM      6  H   UNL     1      32.482  12.353  11.993  1.00  0.00     0.164 HD
ENDBRANCH   1   2
BRANCH   1   7
ATOM      7  C   UNL     1      31.037  12.242   9.777  1.00  0.00    -0.020 A 
ATOM      8  C   UNL     1      30.244  11.231  10.341  1.00  0.00     0.022 A 
ATOM      9  C   UNL     1      31.477  12.092   8.450  1.00  0.00     0.006 A 
ATOM     10  C   UNL     1      29.898  10.108   9.590  1.00  0.00     0.018 A 
ATOM     11  C   UNL     1      31.127  10.966   7.702  1.00  0.00     0.002 A 
ATOM     12  C   UNL     1      30.334   9.971   8.272  1.00  0.00     0.016 A 
ATOM     13  Br  UNL     1      28.825   8.753  10.361  1.00  0.00    -0.051 Br
ENDBRANCH   1   7
BRANCH   1  14
ATOM     14  C   UNL     1      32.580  14.264   9.973  1.00  0.00     0.057 A 
ATOM     15  C   UNL     1      33.909  14.049  10.213  1.00  0.00    -0.085 A 
ATOM     16  C   UNL     1      32.056  15.328   9.069  1.00  0.00     0.341 A 
ATOM     17  C   UNL     1      34.826  14.965   9.456  1.00  0.00     0.010 A 
ATOM     18  O   UNL     1      32.967  16.102   8.378  1.00  0.00    -0.423 OA
ATOM     19  O   UNL     1      30.854  15.541   8.920  1.00  0.00    -0.246 OA
ATOM     20  C   UNL     1      36.227  14.890   9.586  1.00  0.00     0.011 A 
ATOM     21  C   UNL     1      34.336  15.929   8.583  1.00  0.00     0.137 A 
ATOM     22  C   UNL     1      37.082  15.740   8.874  1.00  0.00     0.001 A 
ATOM     23  C   UNL     1      35.174  16.786   7.860  1.00  0.00     0.048 A 
ATOM     24  C   UNL     1      36.554  16.691   8.007  1.00  0.00     0.004 A 
ATOM     25  O   UNL     1      34.405  13.166  10.983  1.00  0.00    -0.872 OA
ENDBRANCH   1  14
TORSDOF 3
ENDMDL
MODEL 5
REMARK VINA RESULT:    -8.139      1.695      2.313
REMARK INTER + INTRA:         -10.440
REMARK INTER:                  -9.437
REMARK INTRA:                  -1.003
REMARK UNBOUND:                -0.874
REMARK SMILES CC(=O)N[C@H](c1cccc(Br)c1)c1c([O-])c2ccccc2oc1=O
REMARK SMILES IDX 5 1 4 2 2 3 3 4 1 5 6 7 12 8 7 9 10 10 8 11 9 12 11 13 13 14
REMARK SMILES IDX 14 15 23 16 16 17 22 18 24 19 17 20 21 21 18 22 20 23 19 24
REMARK SMILES IDX 15 25
REMARK H PARENT 4 6
ROOT
ATOM      1  C   UNL     1      29.822  13.674  10.262  1.00  0.00     0.149 C 
ENDROOT
BRANCH   1   2
ATOM      2  N   UNL     1      29.750  13.988  11.678  1.00  0.00    -0.345 N 
ATOM      3  C   UNL     1      28.844  14.821  12.258  1.00  0.00     0.217 C 
ATOM      4  O   UNL     1      27.969  15.435  11.655  1.00  0.00    -0.275 OA
ATOM      5  C   UNL     1      29.034  14.961  13.744  1.00  0.00     0.114 C 
ATOM      6  H   UNL     1      30.505  13.546  12.218  1.00  0.00     0.164 HD
ENDBRANCH   1   2
BRANCH   1   7
ATOM      7  C   UNL     1      29.759  12.159  10.066  1.00  0.00    -0.020 A 
ATOM      8  C   UNL     1      28.969  11.368  10.915  1.00  0.00     0.022 A 
ATOM      9  C   UNL     1      30.496  11.526   9.049  1.00  0.00     0.006 A 
ATOM     10  C   UNL     1      28.915   9.985  10.738  1.00  0.00     0.018 A 
ATOM     11  C   UNL     1      30.437  10.143   8.876  1.00  0.00     0.002 A 
ATOM     12  C   UNL     1      29.644   9.369   9.722  1.00  0.00     0.016 A 
ATOM     13  Br  UNL     1      27.843   8.931  11.887  1.00  0.00    -0.051 Br
ENDBRANCH   1   7
BRANCH   1  14
ATOM     14  C   UNL     1      31.075  14.299   9.623  1.00  0.00     0.057 A 
ATOM     15  C   UNL     1      32.357  14.141  10.074  1.00  0.00    -0.085 A 
ATOM     16  C   UNL     1      30.702  15.127   8.441  1.00  0.00     0.341 A 
ATOM     17  C   UNL     1      33.389  14.857   9.253  1.00  0.00     0.010 A 
ATOM     18  O   UNL     1      31.715  15.721   7.715  1.00  0.00    -0.423 OA
ATOM     19  O   UNL     1      29.535  15.304   8.095  1.00  0.00    -0.246 OA
ATOM     20  C   UNL     1      34.760  14.811   9.575  1.00  0.00     0.011 A 
ATOM     21  C   UNL     1      33.042  15.595   8.128  1.00  0.00     0.137 A 
ATOM     22  C   UNL     1      35.724  15.472   8.804  1.00  0.00     0.001 A 
ATOM     23  C   UNL     1      33.990  16.262   7.343  1.00  0.00     0.048 A 
ATOM     24  C   UNL     1      35.338  16.200   7.683  1.00  0.00     0.004 A 
ATOM     25  O   UNL     1      32.724  13.457  11.082  1.00  0.00    -0.872 OA
ENDBRANCH   1  14
TORSDOF 3
ENDMDL
MODEL 6
REMARK VINA RESULT:    -8.103      1.108      2.274
REMARK INTER + INTRA:         -10.399
REMARK INTER:                  -9.942
REMARK INTRA:                  -0.457
REMARK UNBOUND:                -0.874
REMARK SMILES CC(=O)N[C@H](c1cccc(Br)c1)c1c([O-])c2ccccc2oc1=O
REMARK SMILES IDX 5 1 4 2 2 3 3 4 1 5 6 7 12 8 7 9 10 10 8 11 9 12 11 13 13 14
REMARK SMILES IDX 14 15 23 16 16 17 22 18 24 19 17 20 21 21 18 22 20 23 19 24
REMARK SMILES IDX 15 25
REMARK H PARENT 4 6
ROOT
ATOM      1  C   UNL     1      30.907  13.947   9.741  1.00  0.00     0.149 C 
ENDROOT
BRANCH   1   2
ATOM      2  N   UNL     1      30.562  13.886  11.149  1.00  0.00    -0.345 N 
ATOM      3  C   UNL     1      29.473  14.466  11.723  1.00  0.00     0.217 C 
ATOM      4  O   UNL     1      28.637  15.136  11.123  1.00  0.00    -0.275 OA
ATOM      5  C   UNL     1      29.395  14.243  13.208  1.00  0.00     0.114 C 
ATOM      6  H   UNL     1      31.268  13.388  11.707  1.00  0.00     0.164 HD
ENDBRANCH   1   2
BRANCH   1   7
ATOM      7  C   UNL     1      30.621  12.597   9.081  1.00  0.00    -0.020 A 
ATOM      8  C   UNL     1      30.198  11.506   9.857  1.00  0.00     0.022 A 
ATOM      9  C   UNL     1      30.788  12.415   7.696  1.00  0.00     0.006 A 
ATOM     10  C   UNL     1      29.943  10.274   9.255  1.00  0.00     0.018 A 
ATOM     11  C   UNL     1      30.530  11.180   7.100  1.00  0.00     0.002 A 
ATOM     12  C   UNL     1      30.105  10.105   7.880  1.00  0.00     0.016 A 
ATOM     13  Br  UNL     1      29.369   8.813  10.312  1.00  0.00    -0.051 Br
ENDBRANCH   1   7
BRANCH   1  14
ATOM     14  C   UNL     1      32.365  14.399   9.550  1.00  0.00     0.057 A 
ATOM     15  C   UNL     1      32.804  15.279   8.599  1.00  0.00    -0.085 A 
ATOM     16  C   UNL     1      33.255  13.727  10.539  1.00  0.00     0.341 A 
ATOM     17  C   UNL     1      34.279  15.549   8.646  1.00  0.00     0.010 A 
ATOM     18  O   UNL     1      34.595  14.061  10.543  1.00  0.00    -0.423 OA
ATOM     19  O   UNL     1      32.844  12.892  11.343  1.00  0.00    -0.246 OA
ATOM     20  C   UNL     1      34.905  16.425   7.737  1.00  0.00     0.011 A 
ATOM     21  C   UNL     1      35.100  14.952   9.596  1.00  0.00     0.137 A 
ATOM     22  C   UNL     1      36.281  16.683   7.786  1.00  0.00     0.001 A 
ATOM     23  C   UNL     1      36.477  15.197   9.663  1.00  0.00     0.048 A 
ATOM     24  C   UNL     1      37.070  16.067   8.753  1.00  0.00     0.004 A 
ATOM     25  O   UNL     1      32.088  15.868   7.727  1.00  0.00    -0.872 OA
ENDBRANCH   1  14
TORSDOF 3
ENDMDL
MODEL 7
REMARK VINA RESULT:    -7.963      4.899      8.495
REMARK INTER + INTRA:         -10.234
REMARK INTER:                  -9.188
REMARK INTRA:                  -1.046
REMARK UNBOUND:                -0.874
REMARK SMILES CC(=O)N[C@H](c1cccc(Br)c1)c1c([O-])c2ccccc2oc1=O
REMARK SMILES IDX 5 1 4 2 2 3 3 4 1 5 6 7 12 8 7 9 10 10 8 11 9 12 11 13 13 14
REMARK SMILES IDX 14 15 23 16 16 17 22 18 24 19 17 20 21 21 18 22 20 23 19 24
REMARK SMILES IDX 15 25
REMARK H PARENT 4 6
ROOT
ATOM      1  C   UNL     1      30.141  10.769  11.865  1.00  0.00     0.149 C 
ENDROOT
BRANCH   1   2
ATOM      2  N   UNL     1      30.142  11.013  13.295  1.00  0.00    -0.345 N 
ATOM      3  C   UNL     1      30.800  10.268  14.225  1.00  0.00     0.217 C 
ATOM      4  O   UNL     1      31.475   9.273  13.976  1.00  0.00    -0.275 OA
ATOM      5  C   UNL     1      30.595  10.758  15.632  1.00  0.00     0.114 C 
ATOM      6  H   UNL     1      29.536  11.800  13.562  1.00  0.00     0.164 HD
ENDBRANCH   1   2
BRANCH   1   7
ATOM      7  C   UNL     1      30.022  12.097  11.115  1.00  0.00    -0.020 A 
ATOM      8  C   UNL     1      29.973  12.115   9.712  1.00  0.00     0.022 A 
ATOM      9  C   UNL     1      29.974  13.320  11.807  1.00  0.00     0.006 A 
ATOM     10  C   UNL     1      29.869  13.327   9.029  1.00  0.00     0.018 A 
ATOM     11  C   UNL     1      29.869  14.529  11.118  1.00  0.00     0.002 A 
ATOM     12  C   UNL     1      29.815  14.534   9.725  1.00  0.00     0.016 A 
ATOM     13  Br  UNL     1      29.799  13.337   7.138  1.00  0.00    -0.051 Br
ENDBRANCH   1   7
BRANCH   1  14
ATOM     14  C   UNL     1      29.035   9.772  11.477  1.00  0.00     0.057 A 
ATOM     15  C   UNL     1      27.774   9.743  12.007  1.00  0.00    -0.085 A 
ATOM     16  C   UNL     1      29.530   8.816  10.446  1.00  0.00     0.341 A 
ATOM     17  C   UNL     1      26.894   8.669  11.438  1.00  0.00     0.010 A 
ATOM     18  O   UNL     1      28.644   7.882   9.945  1.00  0.00    -0.423 OA
ATOM     19  O   UNL     1      30.688   8.824  10.032  1.00  0.00    -0.246 OA
ATOM     20  C   UNL     1      25.565   8.487  11.871  1.00  0.00     0.011 A 
ATOM     21  C   UNL     1      27.345   7.804  10.448  1.00  0.00     0.137 A 
ATOM     22  C   UNL     1      24.742   7.490  11.335  1.00  0.00     0.001 A 
ATOM     23  C   UNL     1      26.537   6.802   9.897  1.00  0.00     0.048 A 
ATOM     24  C   UNL     1      25.229   6.645  10.343  1.00  0.00     0.004 A 
ATOM     25  O   UNL     1      27.309  10.527  12.895  1.00  0.00    -0.872 OA
ENDBRANCH   1  14
TORSDOF 3
ENDMDL
MODEL 8
REMARK VINA RESULT:    -7.773      5.308      6.967
REMARK INTER + INTRA:         -10.011
REMARK INTER:                  -8.756
REMARK INTRA:                  -1.255
REMARK UNBOUND:                -0.874
REMARK SMILES CC(=O)N[C@H](c1cccc(Br)c1)c1c([O-])c2ccccc2oc1=O
REMARK SMILES IDX 5 1 4 2 2 3 3 4 1 5 6 7 12 8 7 9 10 10 8 11 9 12 11 13 13 14
REMARK SMILES IDX 14 15 23 16 16 17 22 18 24 19 17 20 21 21 18 22 20 23 19 24
REMARK SMILES IDX 15 25
REMARK H PARENT 4 6
ROOT
ATOM      1  C   UNL     1      32.814  12.053  15.142  1.00  0.00     0.149 C 
ENDROOT
BRANCH   1   2
ATOM      2  N   UNL     1      33.949  12.778  15.685  1.00  0.00    -0.345 N 
ATOM      3  C   UNL     1      33.884  13.952  16.369  1.00  0.00     0.217 C 
ATOM      4  O   UNL     1      32.849  14.568  16.609  1.00  0.00    -0.275 OA
ATOM      5  C   UNL     1      35.232  14.469  16.789  1.00  0.00     0.114 C 
ATOM      6  H   UNL     1      34.847  12.334  15.454  1.00  0.00     0.164 HD
ENDBRANCH   1   2
BRANCH   1   7
ATOM      7  C   UNL     1      33.134  10.559  15.088  1.00  0.00    -0.020 A 
ATOM      8  C   UNL     1      34.385  10.088  15.516  1.00  0.00     0.022 A 
ATOM      9  C   UNL     1      32.197   9.632  14.597  1.00  0.00     0.006 A 
ATOM     10  C   UNL     1      34.679   8.725  15.462  1.00  0.00     0.018 A 
ATOM     11  C   UNL     1      32.496   8.270  14.546  1.00  0.00     0.002 A 
ATOM     12  C   UNL     1      33.740   7.813  14.980  1.00  0.00     0.016 A 
ATOM     13  Br  UNL     1      36.367   8.103  16.047  1.00  0.00    -0.051 Br
ENDBRANCH   1   7
BRANCH   1  14
ATOM     14  C   UNL     1      32.404  12.619  13.771  1.00  0.00     0.057 A 
ATOM     15  C   UNL     1      33.253  12.847  12.723  1.00  0.00    -0.085 A 
ATOM     16  C   UNL     1      30.942  12.908  13.740  1.00  0.00     0.341 A 
ATOM     17  C   UNL     1      32.582  13.395  11.498  1.00  0.00     0.010 A 
ATOM     18  O   UNL     1      30.395  13.373  12.560  1.00  0.00    -0.423 OA
ATOM     19  O   UNL     1      30.212  12.752  14.717  1.00  0.00    -0.246 OA
ATOM     20  C   UNL     1      33.304  13.696  10.325  1.00  0.00     0.011 A 
ATOM     21  C   UNL     1      31.213  13.626  11.458  1.00  0.00     0.137 A 
ATOM     22  C   UNL     1      32.676  14.200   9.179  1.00  0.00     0.001 A 
ATOM     23  C   UNL     1      30.566  14.127  10.322  1.00  0.00     0.048 A 
ATOM     24  C   UNL     1      31.302  14.416   9.177  1.00  0.00     0.004 A 
ATOM     25  O   UNL     1      34.507  12.629  12.705  1.00  0.00    -0.872 OA
ENDBRANCH   1  14
TORSDOF 3
ENDMDL
MODEL 9
REMARK VINA RESULT:    -7.711      2.761      5.842
REMARK INTER + INTRA:          -9.938
REMARK INTER:                  -8.943
REMARK INTRA:                  -0.995
REMARK UNBOUND:                -0.874
REMARK SMILES CC(=O)N[C@H](c1cccc(Br)c1)c1c([O-])c2ccccc2oc1=O
REMARK SMILES IDX 5 1 4 2 2 3 3 4 1 5 6 7 12 8 7 9 10 10 8 11 9 12 11 13 13 14
REMARK SMILES IDX 14 15 23 16 16 17 22 18 24 19 17 20 21 21 18 22 20 23 19 24
REMARK SMILES IDX 15 25
REMARK H PARENT 4 6
ROOT
ATOM      1  C   UNL     1      30.872  13.999   9.103  1.00  0.00     0.149 C 
ENDROOT
BRANCH   1   2
ATOM      2  N   UNL     1      31.350  12.710   8.635  1.00  0.00    -0.345 N 
ATOM      3  C   UNL     1      30.711  11.908   7.740  1.00  0.00     0.217 C 
ATOM      4  O   UNL     1      29.630  12.162   7.216  1.00  0.00    -0.275 OA
ATOM      5  C   UNL     1      31.445  10.624   7.466  1.00  0.00     0.114 C 
ATOM      6  H   UNL     1      32.223  12.422   9.094  1.00  0.00     0.164 HD
ENDBRANCH   1   2
BRANCH   1   7
ATOM      7  C   UNL     1      31.847  15.096   8.674  1.00  0.00    -0.020 A 
ATOM      8  C   UNL     1      33.231  14.906   8.810  1.00  0.00     0.022 A 
ATOM      9  C   UNL     1      31.383  16.317   8.152  1.00  0.00     0.006 A 
ATOM     10  C   UNL     1      34.120  15.909   8.424  1.00  0.00     0.018 A 
ATOM     11  C   UNL     1      32.277  17.317   7.766  1.00  0.00     0.002 A 
ATOM     12  C   UNL     1      33.650  17.114   7.901  1.00  0.00     0.016 A 
ATOM     13  Br  UNL     1      35.983  15.637   8.609  1.00  0.00    -0.051 Br
ENDBRANCH   1   7
BRANCH   1  14
ATOM     14  C   UNL     1      30.639  13.979  10.623  1.00  0.00     0.057 A 
ATOM     15  C   UNL     1      31.502  13.465  11.551  1.00  0.00    -0.085 A 
ATOM     16  C   UNL     1      29.319  14.587  10.958  1.00  0.00     0.341 A 
ATOM     17  C   UNL     1      31.025  13.587  12.968  1.00  0.00     0.010 A 
ATOM     18  O   UNL     1      28.971  14.699  12.290  1.00  0.00    -0.423 OA
ATOM     19  O   UNL     1      28.534  14.986  10.099  1.00  0.00    -0.246 OA
ATOM     20  C   UNL     1      31.783  13.105  14.054  1.00  0.00     0.011 A 
ATOM     21  C   UNL     1      29.812  14.190  13.281  1.00  0.00     0.137 A 
ATOM     22  C   UNL     1      31.341  13.226  15.377  1.00  0.00     0.001 A 
ATOM     23  C   UNL     1      29.353  14.324  14.596  1.00  0.00     0.048 A 
ATOM     24  C   UNL     1      30.122  13.838  15.650  1.00  0.00     0.004 A 
ATOM     25  O   UNL     1      32.630  12.926  11.316  1.00  0.00    -0.872 OA
ENDBRANCH   1  14
TORSDOF 3
ENDMDL
MODEL 10
REMARK VINA RESULT:    -7.684      4.805      7.197
REMARK INTER + INTRA:          -9.906
REMARK INTER:                  -8.690
REMARK INTRA:                  -1.216
REMARK UNBOUND:                -0.874
REMARK SMILES CC(=O)N[C@H](c1cccc(Br)c1)c1c([O-])c2ccccc2oc1=O
REMARK SMILES IDX 5 1 4 2 2 3 3 4 1 5 6 7 12 8 7 9 10 10 8 11 9 12 11 13 13 14
REMARK SMILES IDX 14 15 23 16 16 17 22 18 24 19 17 20 21 21 18 22 20 23 19 24
REMARK SMILES IDX 15 25
REMARK H PARENT 4 6
ROOT
ATOM      1  C   UNL     1      28.948   9.597  12.529  1.00  0.00     0.149 C 
ENDROOT
BRANCH   1   2
ATOM      2  N   UNL     1      27.538   9.667  12.865  1.00  0.00    -0.345 N 
ATOM      3  C   UNL     1      26.535   9.021  12.209  1.00  0.00     0.217 C 
ATOM      4  O   UNL     1      26.690   8.299  11.229  1.00  0.00    -0.275 OA
ATOM      5  C   UNL     1      25.173   9.306  12.781  1.00  0.00     0.114 C 
ATOM      6  H   UNL     1      27.349  10.313  13.643  1.00  0.00     0.164 HD
ENDBRANCH   1   2
BRANCH   1   7
ATOM      7  C   UNL     1      29.788   9.984  13.747  1.00  0.00    -0.020 A 
ATOM      8  C   UNL     1      31.115   9.542  13.860  1.00  0.00     0.022 A 
ATOM      9  C   UNL     1      29.250  10.773  14.779  1.00  0.00     0.006 A 
ATOM     10  C   UNL     1      31.880   9.892  14.974  1.00  0.00     0.018 A 
ATOM     11  C   UNL     1      30.020  11.121  15.890  1.00  0.00     0.002 A 
ATOM     12  C   UNL     1      31.339  10.681  15.989  1.00  0.00     0.016 A 
ATOM     13  Br  UNL     1      33.669   9.292  15.112  1.00  0.00    -0.051 Br
ENDBRANCH   1   7
BRANCH   1  14
ATOM     14  C   UNL     1      29.264  10.461  11.296  1.00  0.00     0.057 A 
ATOM     15  C   UNL     1      28.886  11.765  11.126  1.00  0.00    -0.085 A 
ATOM     16  C   UNL     1      30.030   9.675  10.288  1.00  0.00     0.341 A 
ATOM     17  C   UNL     1      29.338  12.370   9.829  1.00  0.00     0.010 A 
ATOM     18  O   UNL     1      30.443  10.318   9.138  1.00  0.00    -0.423 OA
ATOM     19  O   UNL     1      30.302   8.485  10.439  1.00  0.00    -0.246 OA
ATOM     20  C   UNL     1      29.033  13.702   9.482  1.00  0.00     0.011 A 
ATOM     21  C   UNL     1      30.087  11.648   8.908  1.00  0.00     0.137 A 
ATOM     22  C   UNL     1      29.462  14.269   8.276  1.00  0.00     0.001 A 
ATOM     23  C   UNL     1      30.527  12.196   7.698  1.00  0.00     0.048 A 
ATOM     24  C   UNL     1      30.212  13.514   7.380  1.00  0.00     0.004 A 
ATOM     25  O   UNL     1      28.223  12.474  11.949  1.00  0.00    -0.872 OA
ENDBRANCH   1  14
TORSDOF 3
ENDMDL
MODEL 11
REMARK VINA RESULT:    -7.679      5.047      8.832
REMARK INTER + INTRA:          -9.900
REMARK INTER:                  -8.943
REMARK INTRA:                  -0.957
REMARK UNBOUND:                -0.874
REMARK SMILES CC(=O)N[C@H](c1cccc(Br)c1)c1c([O-])c2ccccc2oc1=O
REMARK SMILES IDX 5 1 4 2 2 3 3 4 1 5 6 7 12 8 7 9 10 10 8 11 9 12 11 13 13 14
REMARK SMILES IDX 14 15 23 16 16 17 22 18 24 19 17 20 21 21 18 22 20 23 19 24
REMARK SMILES IDX 15 25
REMARK H PARENT 4 6
ROOT
ATOM      1  C   UNL     1      29.772  11.283  12.448  1.00  0.00     0.149 C 
ENDROOT
BRANCH   1   2
ATOM      2  N   UNL     1      30.429  11.927  11.326  1.00  0.00    -0.345 N 
ATOM      3  C   UNL     1      29.891  12.909  10.551  1.00  0.00     0.217 C 
ATOM      4  O   UNL     1      28.764  13.374  10.691  1.00  0.00    -0.275 OA
ATOM      5  C   UNL     1      30.809  13.365   9.450  1.00  0.00     0.114 C 
ATOM      6  H   UNL     1      31.355  11.526  11.128  1.00  0.00     0.164 HD
ENDBRANCH   1   2
BRANCH   1   7
ATOM      7  C   UNL     1      30.821  10.691  13.390  1.00  0.00    -0.020 A 
ATOM      8  C   UNL     1      31.646  11.535  14.150  1.00  0.00     0.022 A 
ATOM      9  C   UNL     1      30.993   9.300  13.504  1.00  0.00     0.006 A 
ATOM     10  C   UNL     1      32.607  10.995  15.005  1.00  0.00     0.018 A 
ATOM     11  C   UNL     1      31.955   8.765  14.362  1.00  0.00     0.002 A 
ATOM     12  C   UNL     1      32.764   9.614  15.116  1.00  0.00     0.016 A 
ATOM     13  Br  UNL     1      33.710  12.144  16.027  1.00  0.00    -0.051 Br
ENDBRANCH   1   7
BRANCH   1  14
ATOM     14  C   UNL     1      28.757  10.234  11.964  1.00  0.00     0.057 A 
ATOM     15  C   UNL     1      28.931   9.397  10.895  1.00  0.00    -0.085 A 
ATOM     16  C   UNL     1      27.530  10.261  12.811  1.00  0.00     0.341 A 
ATOM     17  C   UNL     1      27.782   8.464  10.652  1.00  0.00     0.010 A 
ATOM     18  O   UNL     1      26.534   9.342  12.545  1.00  0.00    -0.423 OA
ATOM     19  O   UNL     1      27.373  11.067  13.727  1.00  0.00    -0.246 OA
ATOM     20  C   UNL     1      27.786   7.538   9.590  1.00  0.00     0.011 A 
ATOM     21  C   UNL     1      26.657   8.464  11.468  1.00  0.00     0.137 A 
ATOM     22  C   UNL     1      26.717   6.661   9.368  1.00  0.00     0.001 A 
ATOM     23  C   UNL     1      25.577   7.596  11.264  1.00  0.00     0.048 A 
ATOM     24  C   UNL     1      25.608   6.690  10.208  1.00  0.00     0.004 A 
ATOM     25  O   UNL     1      29.951   9.344  10.136  1.00  0.00    -0.872 OA
ENDBRANCH   1  14
TORSDOF 3
ENDMDL
MODEL 12
REMARK VINA RESULT:    -7.661      6.376      9.104
REMARK INTER + INTRA:          -9.879
REMARK INTER:                  -8.761
REMARK INTRA:                  -1.118
REMARK UNBOUND:                -0.874
REMARK SMILES CC(=O)N[C@H](c1cccc(Br)c1)c1c([O-])c2ccccc2oc1=O
REMARK SMILES IDX 5 1 4 2 2 3 3 4 1 5 6 7 12 8 7 9 10 10 8 11 9 12 11 13 13 14
REMARK SMILES IDX 14 15 23 16 16 17 22 18 24 19 17 20 21 21 18 22 20 23 19 24
REMARK SMILES IDX 15 25
REMARK H PARENT 4 6
ROOT
ATOM      1  C   UNL     1      27.818  11.788  13.687  1.00  0.00     0.149 C 
ENDROOT
BRANCH   1   2
ATOM      2  N   UNL     1      27.853  12.994  12.880  1.00  0.00    -0.345 N 
ATOM      3  C   UNL     1      26.846  13.902  12.770  1.00  0.00     0.217 C 
ATOM      4  O   UNL     1      25.758  13.815  13.333  1.00  0.00    -0.275 OA
ATOM      5  C   UNL     1      27.172  15.040  11.842  1.00  0.00     0.114 C 
ATOM      6  H   UNL     1      28.722  13.080  12.337  1.00  0.00     0.164 HD
ENDBRANCH   1   2
BRANCH   1   7
ATOM      7  C   UNL     1      29.182  11.568  14.345  1.00  0.00    -0.020 A 
ATOM      8  C   UNL     1      30.197  12.527  14.205  1.00  0.00     0.022 A 
ATOM      9  C   UNL     1      29.451  10.403  15.085  1.00  0.00     0.006 A 
ATOM     10  C   UNL     1      31.442  12.323  14.801  1.00  0.00     0.018 A 
ATOM     11  C   UNL     1      30.698  10.206  15.680  1.00  0.00     0.002 A 
ATOM     12  C   UNL     1      31.698  11.168  15.539  1.00  0.00     0.016 A 
ATOM     13  Br  UNL     1      32.801  13.626  14.609  1.00  0.00    -0.051 Br
ENDBRANCH   1   7
BRANCH   1  14
ATOM     14  C   UNL     1      27.366  10.579  12.851  1.00  0.00     0.057 A 
ATOM     15  C   UNL     1      28.058  10.037  11.802  1.00  0.00    -0.085 A 
ATOM     16  C   UNL     1      26.045  10.078  13.327  1.00  0.00     0.341 A 
ATOM     17  C   UNL     1      27.387   8.853  11.170  1.00  0.00     0.010 A 
ATOM     18  O   UNL     1      25.514   8.958  12.717  1.00  0.00    -0.423 OA
ATOM     19  O   UNL     1      25.414  10.622  14.231  1.00  0.00    -0.246 OA
ATOM     20  C   UNL     1      27.954   8.174  10.073  1.00  0.00     0.011 A 
ATOM     21  C   UNL     1      26.175   8.364  11.642  1.00  0.00     0.137 A 
ATOM     22  C   UNL     1      27.332   7.064   9.488  1.00  0.00     0.001 A 
ATOM     23  C   UNL     1      25.537   7.255  11.073  1.00  0.00     0.048 A 
ATOM     24  C   UNL     1      26.119   6.602   9.990  1.00  0.00     0.004 A 
ATOM     25  O   UNL     1      29.179  10.435  11.351  1.00  0.00    -0.872 OA
ENDBRANCH   1  14
TORSDOF 3
ENDMDL
MODEL 13
REMARK VINA RESULT:    -7.625      2.988      4.788
REMARK INTER + INTRA:          -9.837
REMARK INTER:                  -8.756
REMARK INTRA:                  -1.081
REMARK UNBOUND:                -0.874
REMARK SMILES CC(=O)N[C@H](c1cccc(Br)c1)c1c([O-])c2ccccc2oc1=O
REMARK SMILES IDX 5 1 4 2 2 3 3 4 1 5 6 7 12 8 7 9 10 10 8 11 9 12 11 13 13 14
REMARK SMILES IDX 14 15 23 16 16 17 22 18 24 19 17 20 21 21 18 22 20 23 19 24
REMARK SMILES IDX 15 25
REMARK H PARENT 4 6
ROOT
ATOM      1  C   UNL     1      31.961  12.684  11.719  1.00  0.00     0.149 C 
ENDROOT
BRANCH   1   2
ATOM      2  N   UNL     1      31.170  11.895  10.792  1.00  0.00    -0.345 N 
ATOM      3  C   UNL     1      30.562  10.713  11.079  1.00  0.00     0.217 C 
ATOM      4  O   UNL     1      30.612  10.143  12.165  1.00  0.00    -0.275 OA
ATOM      5  C   UNL     1      29.828  10.123   9.905  1.00  0.00     0.114 C 
ATOM      6  H   UNL     1      31.151  12.300   9.847  1.00  0.00     0.164 HD
ENDBRANCH   1   2
BRANCH   1   7
ATOM      7  C   UNL     1      31.041  13.578  12.551  1.00  0.00    -0.020 A 
ATOM      8  C   UNL     1      31.419  13.974  13.844  1.00  0.00     0.022 A 
ATOM      9  C   UNL     1      29.799  14.008  12.051  1.00  0.00     0.006 A 
ATOM     10  C   UNL     1      30.576  14.785  14.604  1.00  0.00     0.018 A 
ATOM     11  C   UNL     1      28.961  14.821  12.816  1.00  0.00     0.002 A 
ATOM     12  C   UNL     1      29.350  15.212  14.096  1.00  0.00     0.016 A 
ATOM     13  Br  UNL     1      31.100  15.315  16.344  1.00  0.00    -0.051 Br
ENDBRANCH   1   7
BRANCH   1  14
ATOM     14  C   UNL     1      33.045  13.484  10.976  1.00  0.00     0.057 A 
ATOM     15  C   UNL     1      32.855  14.191   9.820  1.00  0.00    -0.085 A 
ATOM     16  C   UNL     1      34.354  13.371  11.680  1.00  0.00     0.341 A 
ATOM     17  C   UNL     1      34.085  14.887   9.317  1.00  0.00     0.010 A 
ATOM     18  O   UNL     1      35.429  14.075  11.174  1.00  0.00    -0.423 OA
ATOM     19  O   UNL     1      34.512  12.678  12.683  1.00  0.00    -0.246 OA
ATOM     20  C   UNL     1      34.076  15.655   8.136  1.00  0.00     0.011 A 
ATOM     21  C   UNL     1      35.295  14.813   9.997  1.00  0.00     0.137 A 
ATOM     22  C   UNL     1      35.222  16.311   7.670  1.00  0.00     0.001 A 
ATOM     23  C   UNL     1      36.452  15.463   9.550  1.00  0.00     0.048 A 
ATOM     24  C   UNL     1      36.414  16.216   8.380  1.00  0.00     0.004 A 
ATOM     25  O   UNL     1      31.764  14.307   9.176  1.00  0.00    -0.872 OA
ENDBRANCH   1  14
TORSDOF 3
ENDMDL
MODEL 14
REMARK VINA RESULT:    -7.593      4.695      6.250
REMARK INTER + INTRA:          -9.800
REMARK INTER:                  -8.621
REMARK INTRA:                  -1.178
REMARK UNBOUND:                -0.874
REMARK SMILES CC(=O)N[C@H](c1cccc(Br)c1)c1c([O-])c2ccccc2oc1=O
REMARK SMILES IDX 5 1 4 2 2 3 3 4 1 5 6 7 12 8 7 9 10 10 8 11 9 12 11 13 13 14
REMARK SMILES IDX 14 15 23 16 16 17 22 18 24 19 17 20 21 21 18 22 20 23 19 24
REMARK SMILES IDX 15 25
REMARK H PARENT 4 6
ROOT
ATOM      1  C   UNL     1      28.691  12.477  12.710  1.00  0.00     0.149 C 
ENDROOT
BRANCH   1   2
ATOM      2  N   UNL     1      29.785  11.828  13.409  1.00  0.00    -0.345 N 
ATOM      3  C   UNL     1      30.824  12.464  14.015  1.00  0.00     0.217 C 
ATOM      4  O   UNL     1      30.984  13.682  14.040  1.00  0.00    -0.275 OA
ATOM      5  C   UNL     1      31.814  11.520  14.641  1.00  0.00     0.114 C 
ATOM      6  H   UNL     1      29.731  10.803  13.361  1.00  0.00     0.164 HD
ENDBRANCH   1   2
BRANCH   1   7
ATOM      7  C   UNL     1      27.381  11.750  13.016  1.00  0.00    -0.020 A 
ATOM      8  C   UNL     1      27.370  10.359  13.199  1.00  0.00     0.022 A 
ATOM      9  C   UNL     1      26.165  12.452  13.105  1.00  0.00     0.006 A 
ATOM     10  C   UNL     1      26.173   9.696  13.474  1.00  0.00     0.018 A 
ATOM     11  C   UNL     1      24.971  11.783  13.381  1.00  0.00     0.002 A 
ATOM     12  C   UNL     1      24.974  10.401  13.567  1.00  0.00     0.016 A 
ATOM     13  Br  UNL     1      26.173   7.820  13.723  1.00  0.00    -0.051 Br
ENDBRANCH   1   7
BRANCH   1  14
ATOM     14  C   UNL     1      28.977  12.565  11.201  1.00  0.00     0.057 A 
ATOM     15  C   UNL     1      29.513  11.565  10.436  1.00  0.00    -0.085 A 
ATOM     16  C   UNL     1      28.607  13.910  10.675  1.00  0.00     0.341 A 
ATOM     17  C   UNL     1      29.676  11.920   8.988  1.00  0.00     0.010 A 
ATOM     18  O   UNL     1      28.751  14.143   9.322  1.00  0.00    -0.423 OA
ATOM     19  O   UNL     1      28.186  14.813  11.396  1.00  0.00    -0.246 OA
ATOM     20  C   UNL     1      30.218  11.013   8.055  1.00  0.00     0.011 A 
ATOM     21  C   UNL     1      29.292  13.160   8.492  1.00  0.00     0.137 A 
ATOM     22  C   UNL     1      30.363  11.341   6.702  1.00  0.00     0.001 A 
ATOM     23  C   UNL     1      29.427  13.508   7.143  1.00  0.00     0.048 A 
ATOM     24  C   UNL     1      29.965  12.593   6.243  1.00  0.00     0.004 A 
ATOM     25  O   UNL     1      29.856  10.408  10.839  1.00  0.00    -0.872 OA
ENDBRANCH   1  14
TORSDOF 3
ENDMDL
MODEL 15
REMARK VINA RESULT:    -7.591      2.006      3.426
REMARK INTER + INTRA:          -9.797
REMARK INTER:                  -9.225
REMARK INTRA:                  -0.572
REMARK UNBOUND:                -0.874
REMARK SMILES CC(=O)N[C@H](c1cccc(Br)c1)c1c([O-])c2ccccc2oc1=O
REMARK SMILES IDX 5 1 4 2 2 3 3 4 1 5 6 7 12 8 7 9 10 10 8 11 9 12 11 13 13 14
REMARK SMILES IDX 14 15 23 16 16 17 22 18 24 19 17 20 21 21 18 22 20 23 19 24
REMARK SMILES IDX 15 25
REMARK H PARENT 4 6
ROOT
ATOM      1  C   UNL     1      30.750  13.488  11.167  1.00  0.00     0.149 C 
ENDROOT
BRANCH   1   2
ATOM      2  N   UNL     1      31.275  13.490  12.520  1.00  0.00    -0.345 N 
ATOM      3  C   UNL     1      30.794  14.231  13.555  1.00  0.00     0.217 C 
ATOM      4  O   UNL     1      29.852  15.015  13.478  1.00  0.00    -0.275 OA
ATOM      5  C   UNL     1      31.560  14.033  14.834  1.00  0.00     0.114 C 
ATOM      6  H   UNL     1      32.108  12.896  12.621  1.00  0.00     0.164 HD
ENDBRANCH   1   2
BRANCH   1   7
ATOM      7  C   UNL     1      30.524  12.049  10.704  1.00  0.00    -0.020 A 
ATOM      8  C   UNL     1      30.420  11.754   9.335  1.00  0.00     0.022 A 
ATOM      9  C   UNL     1      30.401  10.998  11.630  1.00  0.00     0.006 A 
ATOM     10  C   UNL     1      30.208  10.441   8.913  1.00  0.00     0.018 A 
ATOM     11  C   UNL     1      30.191   9.686  11.202  1.00  0.00     0.002 A 
ATOM     12  C   UNL     1      30.095   9.405   9.840  1.00  0.00     0.016 A 
ATOM     13  Br  UNL     1      30.074  10.058   7.065  1.00  0.00    -0.051 Br
ENDBRANCH   1   7
BRANCH   1  14
ATOM     14  C   UNL     1      31.671  14.275  10.218  1.00  0.00     0.057 A 
ATOM     15  C   UNL     1      31.257  15.192   9.292  1.00  0.00    -0.085 A 
ATOM     16  C   UNL     1      33.095  13.886  10.430  1.00  0.00     0.341 A 
ATOM     17  C   UNL     1      32.372  15.817   8.506  1.00  0.00     0.010 A 
ATOM     18  O   UNL     1      34.065  14.537   9.693  1.00  0.00    -0.423 OA
ATOM     19  O   UNL     1      33.434  13.012  11.226  1.00  0.00    -0.246 OA
ATOM     20  C   UNL     1      32.130  16.778   7.504  1.00  0.00     0.011 A 
ATOM     21  C   UNL     1      33.702  15.482   8.733  1.00  0.00     0.137 A 
ATOM     22  C   UNL     1      33.171  17.366   6.776  1.00  0.00     0.001 A 
ATOM     23  C   UNL     1      34.757  16.060   8.017  1.00  0.00     0.048 A 
ATOM     24  C   UNL     1      34.489  17.007   7.033  1.00  0.00     0.004 A 
ATOM     25  O   UNL     1      30.057  15.548   9.065  1.00  0.00    -0.872 OA
ENDBRANCH   1  14
TORSDOF 3
ENDMDL
MODEL 16
REMARK VINA RESULT:    -7.440      5.013      7.601
REMARK INTER + INTRA:          -9.619
REMARK INTER:                  -8.731
REMARK INTRA:                  -0.889
REMARK UNBOUND:                -0.874
REMARK SMILES CC(=O)N[C@H](c1cccc(Br)c1)c1c([O-])c2ccccc2oc1=O
REMARK SMILES IDX 5 1 4 2 2 3 3 4 1 5 6 7 12 8 7 9 10 10 8 11 9 12 11 13 13 14
REMARK SMILES IDX 14 15 23 16 16 17 22 18 24 19 17 20 21 21 18 22 20 23 19 24
REMARK SMILES IDX 15 25
REMARK H PARENT 4 6
ROOT
ATOM      1  C   UNL     1      29.633  10.088  10.921  1.00  0.00     0.149 C 
ENDROOT
BRANCH   1   2
ATOM      2  N   UNL     1      29.591  11.081   9.863  1.00  0.00    -0.345 N 
ATOM      3  C   UNL     1      30.303  11.033   8.705  1.00  0.00     0.217 C 
ATOM      4  O   UNL     1      31.094  10.143   8.403  1.00  0.00    -0.275 OA
ATOM      5  C   UNL     1      30.062  12.219   7.811  1.00  0.00     0.114 C 
ATOM      6  H   UNL     1      28.990  11.882  10.097  1.00  0.00     0.164 HD
ENDBRANCH   1   2
BRANCH   1   7
ATOM      7  C   UNL     1      28.476   9.102  10.748  1.00  0.00    -0.020 A 
ATOM      8  C   UNL     1      27.369   9.153  11.610  1.00  0.00     0.022 A 
ATOM      9  C   UNL     1      28.502   8.121   9.741  1.00  0.00     0.006 A 
ATOM     10  C   UNL     1      26.317   8.250  11.455  1.00  0.00     0.018 A 
ATOM     11  C   UNL     1      27.445   7.222   9.590  1.00  0.00     0.002 A 
ATOM     12  C   UNL     1      26.348   7.286  10.448  1.00  0.00     0.016 A 
ATOM     13  Br  UNL     1      24.829   8.332  12.621  1.00  0.00    -0.051 Br
ENDBRANCH   1   7
BRANCH   1  14
ATOM     14  C   UNL     1      29.634  10.758  12.306  1.00  0.00     0.057 A 
ATOM     15  C   UNL     1      28.964  11.906  12.631  1.00  0.00    -0.085 A 
ATOM     16  C   UNL     1      30.489   9.993  13.257  1.00  0.00     0.341 A 
ATOM     17  C   UNL     1      29.133  12.331  14.060  1.00  0.00     0.010 A 
ATOM     18  O   UNL     1      30.560  10.429  14.565  1.00  0.00    -0.423 OA
ATOM     19  O   UNL     1      31.131   8.999  12.922  1.00  0.00    -0.246 OA
ATOM     20  C   UNL     1      28.520  13.494  14.568  1.00  0.00     0.011 A 
ATOM     21  C   UNL     1      29.898  11.594  14.955  1.00  0.00     0.137 A 
ATOM     22  C   UNL     1      28.671  13.887  15.903  1.00  0.00     0.001 A 
ATOM     23  C   UNL     1      30.061  11.968  16.294  1.00  0.00     0.048 A 
ATOM     24  C   UNL     1      29.444  13.121  16.770  1.00  0.00     0.004 A 
ATOM     25  O   UNL     1      28.234  12.600  11.854  1.00  0.00    -0.872 OA
ENDBRANCH   1  14
TORSDOF 3
ENDMDL
MODEL 17
REMARK VINA RESULT:    -7.435      3.856      7.425
REMARK INTER + INTRA:          -9.613
REMARK INTER:                  -8.868
REMARK INTRA:                  -0.745
REMARK UNBOUND:                -0.874
REMARK SMILES CC(=O)N[C@H](c1cccc(Br)c1)c1c([O-])c2ccccc2oc1=O
REMARK SMILES IDX 5 1 4 2 2 3 3 4 1 5 6 7 12 8 7 9 10 10 8 11 9 12 11 13 13 14
REMARK SMILES IDX 14 15 23 16 16 17 22 18 24 19 17 20 21 21 18 22 20 23 19 24
REMARK SMILES IDX 15 25
REMARK H PARENT 4 6
ROOT
ATOM      1  C   UNL     1      30.967  11.902  10.660  1.00  0.00     0.149 C 
ENDROOT
BRANCH   1   2
ATOM      2  N   UNL     1      31.106  12.371  12.026  1.00  0.00    -0.345 N 
ATOM      3  C   UNL     1      32.260  12.814  12.596  1.00  0.00     0.217 C 
ATOM      4  O   UNL     1      33.349  12.863  12.031  1.00  0.00    -0.275 OA
ATOM      5  C   UNL     1      32.093  13.217  14.036  1.00  0.00     0.114 C 
ATOM      6  H   UNL     1      30.233  12.290  12.562  1.00  0.00     0.164 HD
ENDBRANCH   1   2
BRANCH   1   7
ATOM      7  C   UNL     1      30.608  13.075   9.746  1.00  0.00    -0.020 A 
ATOM      8  C   UNL     1      31.617  13.905   9.232  1.00  0.00     0.022 A 
ATOM      9  C   UNL     1      29.271  13.356   9.414  1.00  0.00     0.006 A 
ATOM     10  C   UNL     1      31.289  14.978   8.403  1.00  0.00     0.018 A 
ATOM     11  C   UNL     1      28.949  14.430   8.583  1.00  0.00     0.002 A 
ATOM     12  C   UNL     1      29.960  15.244   8.074  1.00  0.00     0.016 A 
ATOM     13  Br  UNL     1      32.659  16.087   7.713  1.00  0.00    -0.051 Br
ENDBRANCH   1   7
BRANCH   1  14
ATOM     14  C   UNL     1      29.945  10.755  10.573  1.00  0.00     0.057 A 
ATOM     15  C   UNL     1      28.962  10.500  11.490  1.00  0.00    -0.085 A 
ATOM     16  C   UNL     1      30.182   9.934   9.352  1.00  0.00     0.341 A 
ATOM     17  C   UNL     1      28.098   9.320  11.150  1.00  0.00     0.010 A 
ATOM     18  O   UNL     1      29.317   8.890   9.091  1.00  0.00    -0.423 OA
ATOM     19  O   UNL     1      31.112  10.148   8.577  1.00  0.00    -0.246 OA
ATOM     20  C   UNL     1      27.040   8.907  11.984  1.00  0.00     0.011 A 
ATOM     21  C   UNL     1      28.296   8.581   9.990  1.00  0.00     0.137 A 
ATOM     22  C   UNL     1      26.230   7.811  11.664  1.00  0.00     0.001 A 
ATOM     23  C   UNL     1      27.496   7.483   9.650  1.00  0.00     0.048 A 
ATOM     24  C   UNL     1      26.457   7.097  10.492  1.00  0.00     0.004 A 
ATOM     25  O   UNL     1      28.728  11.161  12.551  1.00  0.00    -0.872 OA
ENDBRANCH   1  14
TORSDOF 3
ENDMDL
MODEL 18
REMARK VINA RESULT:    -7.423      5.160      6.885
REMARK INTER + INTRA:          -9.600
REMARK INTER:                  -8.341
REMARK INTRA:                  -1.258
REMARK UNBOUND:                -0.874
REMARK SMILES CC(=O)N[C@H](c1cccc(Br)c1)c1c([O-])c2ccccc2oc1=O
REMARK SMILES IDX 5 1 4 2 2 3 3 4 1 5 6 7 12 8 7 9 10 10 8 11 9 12 11 13 13 14
REMARK SMILES IDX 14 15 23 16 16 17 22 18 24 19 17 20 21 21 18 22 20 23 19 24
REMARK SMILES IDX 15 25
REMARK H PARENT 4 6
ROOT
ATOM      1  C   UNL     1      31.746  13.232  13.752  1.00  0.00     0.149 C 
ENDROOT
BRANCH   1   2
ATOM      2  N   UNL     1      30.392  13.273  14.274  1.00  0.00    -0.345 N 
ATOM      3  C   UNL     1      30.027  13.778  15.484  1.00  0.00     0.217 C 
ATOM      4  O   UNL     1      30.801  14.258  16.307  1.00  0.00    -0.275 OA
ATOM      5  C   UNL     1      28.551  13.662  15.753  1.00  0.00     0.114 C 
ATOM      6  H   UNL     1      29.713  12.823  13.647  1.00  0.00     0.164 HD
ENDBRANCH   1   2
BRANCH   1   7
ATOM      7  C   UNL     1      31.715  13.375  12.229  1.00  0.00    -0.020 A 
ATOM      8  C   UNL     1      30.495  13.564  11.561  1.00  0.00     0.022 A 
ATOM      9  C   UNL     1      32.896  13.305  11.469  1.00  0.00     0.006 A 
ATOM     10  C   UNL     1      30.467  13.689  10.172  1.00  0.00     0.018 A 
ATOM     11  C   UNL     1      32.862  13.433  10.079  1.00  0.00     0.002 A 
ATOM     12  C   UNL     1      31.644  13.626   9.428  1.00  0.00     0.016 A 
ATOM     13  Br  UNL     1      28.816  13.948   9.284  1.00  0.00    -0.051 Br
ENDBRANCH   1   7
BRANCH   1  14
ATOM     14  C   UNL     1      32.474  11.956  14.209  1.00  0.00     0.057 A 
ATOM     15  C   UNL     1      31.995  10.681  14.080  1.00  0.00    -0.085 A 
ATOM     16  C   UNL     1      33.782  12.297  14.837  1.00  0.00     0.341 A 
ATOM     17  C   UNL     1      32.920   9.622  14.605  1.00  0.00     0.010 A 
ATOM     18  O   UNL     1      34.593  11.262  15.258  1.00  0.00    -0.423 OA
ATOM     19  O   UNL     1      34.161  13.456  14.997  1.00  0.00    -0.246 OA
ATOM     20  C   UNL     1      32.587   8.254  14.561  1.00  0.00     0.011 A 
ATOM     21  C   UNL     1      34.157   9.940  15.153  1.00  0.00     0.137 A 
ATOM     22  C   UNL     1      33.453   7.265  15.042  1.00  0.00     0.001 A 
ATOM     23  C   UNL     1      35.039   8.967  15.639  1.00  0.00     0.048 A 
ATOM     24  C   UNL     1      34.684   7.623  15.583  1.00  0.00     0.004 A 
ATOM     25  O   UNL     1      30.883  10.341  13.565  1.00  0.00    -0.872 OA
ENDBRANCH   1  14
TORSDOF 3
ENDMDL
MODEL 19
REMARK VINA RESULT:    -7.417      3.485      7.331
REMARK INTER + INTRA:          -9.593
REMARK INTER:                  -8.594
REMARK INTRA:                  -0.999
REMARK UNBOUND:                -0.874
REMARK SMILES CC(=O)N[C@H](c1cccc(Br)c1)c1c([O-])c2ccccc2oc1=O
REMARK SMILES IDX 5 1 4 2 2 3 3 4 1 5 6 7 12 8 7 9 10 10 8 11 9 12 11 13 13 14
REMARK SMILES IDX 14 15 23 16 16 17 22 18 24 19 17 20 21 21 18 22 20 23 19 24
REMARK SMILES IDX 15 25
REMARK H PARENT 4 6
ROOT
ATOM      1  C   UNL     1      30.934  12.805   9.891  1.00  0.00     0.149 C 
ENDROOT
BRANCH   1   2
ATOM      2  N   UNL     1      31.182  11.719   8.961  1.00  0.00    -0.345 N 
ATOM      3  C   UNL     1      30.636  11.601   7.720  1.00  0.00     0.217 C 
ATOM      4  O   UNL     1      29.844  12.396   7.222  1.00  0.00    -0.275 OA
ATOM      5  C   UNL     1      31.070  10.354   6.998  1.00  0.00     0.114 C 
ATOM      6  H   UNL     1      31.791  10.992   9.357  1.00  0.00     0.164 HD
ENDBRANCH   1   2
BRANCH   1   7
ATOM      7  C   UNL     1      32.179  13.046  10.746  1.00  0.00    -0.020 A 
ATOM      8  C   UNL     1      33.367  13.501  10.153  1.00  0.00     0.022 A 
ATOM      9  C   UNL     1      32.166  12.805  12.132  1.00  0.00     0.006 A 
ATOM     10  C   UNL     1      34.503  13.716  10.933  1.00  0.00     0.018 A 
ATOM     11  C   UNL     1      33.306  13.023  12.907  1.00  0.00     0.002 A 
ATOM     12  C   UNL     1      34.479  13.481  12.307  1.00  0.00     0.016 A 
ATOM     13  Br  UNL     1      36.097  14.334  10.122  1.00  0.00    -0.051 Br
ENDBRANCH   1   7
BRANCH   1  14
ATOM     14  C   UNL     1      29.681  12.528  10.740  1.00  0.00     0.057 A 
ATOM     15  C   UNL     1      29.305  11.304  11.221  1.00  0.00    -0.085 A 
ATOM     16  C   UNL     1      28.907  13.784  10.956  1.00  0.00     0.341 A 
ATOM     17  C   UNL     1      28.041  11.324  12.029  1.00  0.00     0.010 A 
ATOM     18  O   UNL     1      27.776  13.724  11.746  1.00  0.00    -0.423 OA
ATOM     19  O   UNL     1      29.233  14.860  10.459  1.00  0.00    -0.246 OA
ATOM     20  C   UNL     1      27.502  10.152  12.597  1.00  0.00     0.011 A 
ATOM     21  C   UNL     1      27.343  12.502  12.264  1.00  0.00     0.137 A 
ATOM     22  C   UNL     1      26.327  10.172  13.358  1.00  0.00     0.001 A 
ATOM     23  C   UNL     1      26.168  12.544  13.023  1.00  0.00     0.048 A 
ATOM     24  C   UNL     1      25.657  11.372  13.573  1.00  0.00     0.004 A 
ATOM     25  O   UNL     1      29.923  10.204  11.053  1.00  0.00    -0.872 OA
ENDBRANCH   1  14
TORSDOF 3
ENDMDL
