MODEL 1
REMARK VINA RESULT:    -9.023      0.000      0.000
REMARK INTER + INTRA:         -12.160
REMARK INTER:                 -11.133
REMARK INTRA:                  -1.027
REMARK UNBOUND:                -1.027
REMARK SMILES CC(=O)N[C@H](c1cccc([N+](=O)[O-])c1)c1c([O-])c2ccccc2oc1=O
REMARK SMILES IDX 6 1 14 2 10 3 9 4 8 5 7 6 5 7 4 8 2 9 3 10 1 11 15 13 16 14
REMARK SMILES IDX 25 15 18 16 24 17 26 18 19 19 23 20 20 21 22 22 21 23 17 24
REMARK SMILES IDX 11 25 12 26 13 27
REMARK H PARENT 4 12
ROOT
ATOM      1  C   UNL     1      30.627  14.064   8.353  1.00  0.00    -0.014 A 
ATOM      2  C   UNL     1      31.121  12.754   8.466  1.00  0.00     0.091 A 
ATOM      3  C   UNL     1      30.661  11.757   7.596  1.00  0.00     0.269 A 
ATOM      4  C   UNL     1      29.711  12.050   6.607  1.00  0.00     0.085 A 
ATOM      5  C   UNL     1      29.221  13.350   6.490  1.00  0.00     0.007 A 
ATOM      6  C   UNL     1      29.678  14.347   7.352  1.00  0.00     0.007 A 
ENDROOT
BRANCH   1   7
ATOM      7  C   UNL     1      31.130  15.161   9.293  1.00  0.00     0.150 C 
BRANCH   7   8
ATOM      8  N   UNL     1      30.894  14.766  10.670  1.00  0.00    -0.345 N 
ATOM      9  C   UNL     1      29.680  14.727  11.282  1.00  0.00     0.217 C 
ATOM     10  O   UNL     1      28.616  15.028  10.746  1.00  0.00    -0.275 OA
ATOM     11  C   UNL     1      29.752  14.303  12.723  1.00  0.00     0.114 C 
ATOM     12  H   UNL     1      31.763  14.548  11.175  1.00  0.00     0.164 HD
ENDBRANCH   7   8
BRANCH   7  13
ATOM     13  C   UNL     1      32.613  15.499   9.061  1.00  0.00     0.057 A 
ATOM     14  C   UNL     1      33.673  14.808   9.579  1.00  0.00    -0.085 A 
ATOM     15  C   UNL     1      32.746  16.707   8.199  1.00  0.00     0.341 A 
ATOM     16  C   UNL     1      35.014  15.358   9.189  1.00  0.00     0.010 A 
ATOM     17  O   UNL     1      34.015  17.139   7.869  1.00  0.00    -0.423 OA
ATOM     18  O   UNL     1      31.771  17.327   7.774  1.00  0.00    -0.246 OA
ATOM     19  C   UNL     1      36.216  14.773   9.634  1.00  0.00     0.011 A 
ATOM     20  C   UNL     1      35.135  16.472   8.368  1.00  0.00     0.137 A 
ATOM     21  C   UNL     1      37.468  15.285   9.268  1.00  0.00     0.001 A 
ATOM     22  C   UNL     1      36.376  16.999   7.989  1.00  0.00     0.048 A 
ATOM     23  C   UNL     1      37.547  16.401   8.442  1.00  0.00     0.004 A 
ATOM     24  O   UNL     1      33.611  13.777  10.321  1.00  0.00    -0.872 OA
ENDBRANCH   7  13
ENDBRANCH   1   7
BRANCH   3  25
ATOM     25  N   UNL     1      31.177  10.389   7.714  1.00  0.00     0.062 N 
ATOM     26  O   UNL     1      31.948   9.984   6.828  1.00  0.00    -0.258 OA
ATOM     27  O   UNL     1      30.819   9.707   8.685  1.00  0.00    -0.258 OA
ENDBRANCH   3  25
TORSDOF 4
ENDMDL
MODEL 2
REMARK VINA RESULT:    -8.877      1.524      1.875
REMARK INTER + INTRA:         -11.980
REMARK INTER:                 -10.712
REMARK INTRA:                  -1.268
REMARK UNBOUND:                -1.027
REMARK SMILES CC(=O)N[C@H](c1cccc([N+](=O)[O-])c1)c1c([O-])c2ccccc2oc1=O
REMARK SMILES IDX 6 1 14 2 10 3 9 4 8 5 7 6 5 7 4 8 2 9 3 10 1 11 15 13 16 14
REMARK SMILES IDX 25 15 18 16 24 17 26 18 19 19 23 20 20 21 22 22 21 23 17 24
REMARK SMILES IDX 11 25 12 26 13 27
REMARK H PARENT 4 12
ROOT
ATOM      1  C   UNL     1      30.327  12.516   9.005  1.00  0.00    -0.014 A 
ATOM      2  C   UNL     1      30.210  11.364   9.800  1.00  0.00     0.091 A 
ATOM      3  C   UNL     1      30.054  10.111   9.193  1.00  0.00     0.269 A 
ATOM      4  C   UNL     1      30.014   9.990   7.797  1.00  0.00     0.085 A 
ATOM      5  C   UNL     1      30.134  11.131   7.006  1.00  0.00     0.007 A 
ATOM      6  C   UNL     1      30.292  12.381   7.605  1.00  0.00     0.007 A 
ENDROOT
BRANCH   1   7
ATOM      7  C   UNL     1      30.506  13.888   9.659  1.00  0.00     0.150 C 
BRANCH   7   8
ATOM      8  N   UNL     1      30.427  13.752  11.103  1.00  0.00    -0.345 N 
ATOM      9  C   UNL     1      29.505  14.353  11.902  1.00  0.00     0.217 C 
ATOM     10  O   UNL     1      28.615  15.101  11.503  1.00  0.00    -0.275 OA
ATOM     11  C   UNL     1      29.690  14.045  13.363  1.00  0.00     0.114 C 
ATOM     12  H   UNL     1      31.181  13.169  11.488  1.00  0.00     0.164 HD
ENDBRANCH   7   8
BRANCH   7  13
ATOM     13  C   UNL     1      31.819  14.572   9.240  1.00  0.00     0.057 A 
ATOM     14  C   UNL     1      33.067  14.224   9.675  1.00  0.00    -0.085 A 
ATOM     15  C   UNL     1      31.547  15.692   8.296  1.00  0.00     0.341 A 
ATOM     16  C   UNL     1      34.173  15.062   9.102  1.00  0.00     0.010 A 
ATOM     17  O   UNL     1      32.620  16.403   7.798  1.00  0.00    -0.423 OA
ATOM     18  O   UNL     1      30.407  16.002   7.947  1.00  0.00    -0.246 OA
ATOM     19  C   UNL     1      35.523  14.846   9.442  1.00  0.00     0.011 A 
ATOM     20  C   UNL     1      33.918  16.092   8.205  1.00  0.00     0.137 A 
ATOM     21  C   UNL     1      36.555  15.626   8.905  1.00  0.00     0.001 A 
ATOM     22  C   UNL     1      34.935  16.882   7.656  1.00  0.00     0.048 A 
ATOM     23  C   UNL     1      36.260  16.647   8.008  1.00  0.00     0.004 A 
ATOM     24  O   UNL     1      33.350  13.282  10.481  1.00  0.00    -0.872 OA
ENDBRANCH   7  13
ENDBRANCH   1   7
BRANCH   3  25
ATOM     25  N   UNL     1      29.932   8.907  10.024  1.00  0.00     0.062 N 
ATOM     26  O   UNL     1      28.800   8.413  10.160  1.00  0.00    -0.258 OA
ATOM     27  O   UNL     1      30.957   8.448  10.548  1.00  0.00    -0.258 OA
ENDBRANCH   3  25
TORSDOF 4
ENDMDL
MODEL 3
REMARK VINA RESULT:    -8.412      2.268      3.375
REMARK INTER + INTRA:         -11.407
REMARK INTER:                 -10.334
REMARK INTRA:                  -1.073
REMARK UNBOUND:                -1.027
REMARK SMILES CC(=O)N[C@H](c1cccc([N+](=O)[O-])c1)c1c([O-])c2ccccc2oc1=O
REMARK SMILES IDX 6 1 14 2 10 3 9 4 8 5 7 6 5 7 4 8 2 9 3 10 1 11 15 13 16 14
REMARK SMILES IDX 25 15 18 16 24 17 26 18 19 19 23 20 20 21 22 22 21 23 17 24
REMARK SMILES IDX 11 25 12 26 13 27
REMARK H PARENT 4 12
ROOT
ATOM      1  C   UNL     1      30.574  11.808  10.692  1.00  0.00    -0.014 A 
ATOM      2  C   UNL     1      30.785  11.551   9.327  1.00  0.00     0.091 A 
ATOM      3  C   UNL     1      30.318  10.358   8.760  1.00  0.00     0.269 A 
ATOM      4  C   UNL     1      29.639   9.412   9.540  1.00  0.00     0.085 A 
ATOM      5  C   UNL     1      29.424   9.665  10.894  1.00  0.00     0.007 A 
ATOM      6  C   UNL     1      29.885  10.853  11.463  1.00  0.00     0.007 A 
ENDROOT
BRANCH   1   7
ATOM      7  C   UNL     1      31.072  13.112  11.316  1.00  0.00     0.150 C 
BRANCH   7   8
ATOM      8  N   UNL     1      32.124  12.822  12.274  1.00  0.00    -0.345 N 
ATOM      9  C   UNL     1      32.202  13.325  13.536  1.00  0.00     0.217 C 
ATOM     10  O   UNL     1      31.390  14.103  14.030  1.00  0.00    -0.275 OA
ATOM     11  C   UNL     1      33.422  12.864  14.286  1.00  0.00     0.114 C 
ATOM     12  H   UNL     1      32.854  12.209  11.889  1.00  0.00     0.164 HD
ENDBRANCH   7   8
BRANCH   7  13
ATOM     13  C   UNL     1      31.551  14.125  10.261  1.00  0.00     0.057 A 
ATOM     14  C   UNL     1      32.822  14.210   9.764  1.00  0.00    -0.085 A 
ATOM     15  C   UNL     1      30.435  15.025   9.856  1.00  0.00     0.341 A 
ATOM     16  C   UNL     1      33.010  15.293   8.742  1.00  0.00     0.010 A 
ATOM     17  O   UNL     1      30.684  15.984   8.894  1.00  0.00    -0.423 OA
ATOM     18  O   UNL     1      29.308  14.943  10.345  1.00  0.00    -0.246 OA
ATOM     19  C   UNL     1      34.255  15.526   8.126  1.00  0.00     0.011 A 
ATOM     20  C   UNL     1      31.962  16.116   8.350  1.00  0.00     0.137 A 
ATOM     21  C   UNL     1      34.431  16.534   7.170  1.00  0.00     0.001 A 
ATOM     22  C   UNL     1      32.116  17.129   7.395  1.00  0.00     0.048 A 
ATOM     23  C   UNL     1      33.357  17.337   6.802  1.00  0.00     0.004 A 
ATOM     24  O   UNL     1      33.806  13.470  10.081  1.00  0.00    -0.872 OA
ENDBRANCH   7  13
ENDBRANCH   1   7
BRANCH   3  25
ATOM     25  N   UNL     1      30.539  10.090   7.335  1.00  0.00     0.062 N 
ATOM     26  O   UNL     1      29.598   9.602   6.687  1.00  0.00    -0.258 OA
ATOM     27  O   UNL     1      31.647  10.361   6.850  1.00  0.00    -0.258 OA
ENDBRANCH   3  25
TORSDOF 4
ENDMDL
MODEL 4
REMARK VINA RESULT:    -8.366      2.467      3.443
REMARK INTER + INTRA:         -11.350
REMARK INTER:                 -10.291
REMARK INTRA:                  -1.059
REMARK UNBOUND:                -1.027
REMARK SMILES CC(=O)N[C@H](c1cccc([N+](=O)[O-])c1)c1c([O-])c2ccccc2oc1=O
REMARK SMILES IDX 6 1 14 2 10 3 9 4 8 5 7 6 5 7 4 8 2 9 3 10 1 11 15 13 16 14
REMARK SMILES IDX 25 15 18 16 24 17 26 18 19 19 23 20 20 21 22 22 21 23 17 24
REMARK SMILES IDX 11 25 12 26 13 27
REMARK H PARENT 4 12
ROOT
ATOM      1  C   UNL     1      30.736  11.875  10.041  1.00  0.00    -0.014 A 
ATOM      2  C   UNL     1      29.884  10.958  10.679  1.00  0.00     0.091 A 
ATOM      3  C   UNL     1      29.425   9.831   9.983  1.00  0.00     0.269 A 
ATOM      4  C   UNL     1      29.808   9.604   8.654  1.00  0.00     0.085 A 
ATOM      5  C   UNL     1      30.657  10.510   8.020  1.00  0.00     0.007 A 
ATOM      6  C   UNL     1      31.119  11.632   8.708  1.00  0.00     0.007 A 
ENDROOT
BRANCH   1   7
ATOM      7  C   UNL     1      31.249  13.103  10.795  1.00  0.00     0.150 C 
BRANCH   7   8
ATOM      8  N   UNL     1      32.315  12.707  11.699  1.00  0.00    -0.345 N 
ATOM      9  C   UNL     1      32.339  12.939  13.039  1.00  0.00     0.217 C 
ATOM     10  O   UNL     1      31.457  13.522  13.664  1.00  0.00    -0.275 OA
ATOM     11  C   UNL     1      33.589  12.435  13.709  1.00  0.00     0.114 C 
ATOM     12  H   UNL     1      33.099  12.254  11.213  1.00  0.00     0.164 HD
ENDBRANCH   7   8
BRANCH   7  13
ATOM     13  C   UNL     1      31.714  14.223   9.849  1.00  0.00     0.057 A 
ATOM     14  C   UNL     1      32.991  14.394   9.392  1.00  0.00    -0.085 A 
ATOM     15  C   UNL     1      30.577  15.122   9.503  1.00  0.00     0.341 A 
ATOM     16  C   UNL     1      33.163  15.572   8.477  1.00  0.00     0.010 A 
ATOM     17  O   UNL     1      30.812  16.173   8.640  1.00  0.00    -0.423 OA
ATOM     18  O   UNL     1      29.444  14.960   9.957  1.00  0.00    -0.246 OA
ATOM     19  C   UNL     1      34.412  15.901   7.915  1.00  0.00     0.011 A 
ATOM     20  C   UNL     1      32.096  16.395   8.140  1.00  0.00     0.137 A 
ATOM     21  C   UNL     1      34.572  16.999   7.059  1.00  0.00     0.001 A 
ATOM     22  C   UNL     1      32.234  17.497   7.286  1.00  0.00     0.048 A 
ATOM     23  C   UNL     1      33.479  17.798   6.743  1.00  0.00     0.004 A 
ATOM     24  O   UNL     1      33.993  13.660   9.661  1.00  0.00    -0.872 OA
ENDBRANCH   7  13
ENDBRANCH   1   7
BRANCH   3  25
ATOM     25  N   UNL     1      28.535   8.874  10.650  1.00  0.00     0.062 N 
ATOM     26  O   UNL     1      28.221   7.847  10.025  1.00  0.00    -0.258 OA
ATOM     27  O   UNL     1      28.141   9.137  11.795  1.00  0.00    -0.258 OA
ENDBRANCH   3  25
TORSDOF 4
ENDMDL
MODEL 5
REMARK VINA RESULT:    -8.243      1.596      2.634
REMARK INTER + INTRA:         -11.198
REMARK INTER:                 -10.681
REMARK INTRA:                  -0.517
REMARK UNBOUND:                -1.027
REMARK SMILES CC(=O)N[C@H](c1cccc([N+](=O)[O-])c1)c1c([O-])c2ccccc2oc1=O
REMARK SMILES IDX 6 1 14 2 10 3 9 4 8 5 7 6 5 7 4 8 2 9 3 10 1 11 15 13 16 14
REMARK SMILES IDX 25 15 18 16 24 17 26 18 19 19 23 20 20 21 22 22 21 23 17 24
REMARK SMILES IDX 11 25 12 26 13 27
REMARK H PARENT 4 12
ROOT
ATOM      1  C   UNL     1      30.466  12.519   9.049  1.00  0.00    -0.014 A 
ATOM      2  C   UNL     1      30.290  11.359   9.821  1.00  0.00     0.091 A 
ATOM      3  C   UNL     1      30.072  10.127   9.191  1.00  0.00     0.269 A 
ATOM      4  C   UNL     1      30.029  10.034   7.793  1.00  0.00     0.085 A 
ATOM      5  C   UNL     1      30.207  11.182   7.023  1.00  0.00     0.007 A 
ATOM      6  C   UNL     1      30.427  12.411   7.645  1.00  0.00     0.007 A 
ENDROOT
BRANCH   1   7
ATOM      7  C   UNL     1      30.714  13.867   9.728  1.00  0.00     0.150 C 
BRANCH   7   8
ATOM      8  N   UNL     1      30.399  13.763  11.142  1.00  0.00    -0.345 N 
ATOM      9  C   UNL     1      29.363  14.386  11.766  1.00  0.00     0.217 C 
ATOM     10  O   UNL     1      28.557  15.130  11.212  1.00  0.00    -0.275 OA
ATOM     11  C   UNL     1      29.305  14.110  13.244  1.00  0.00     0.114 C 
ATOM     12  H   UNL     1      31.075  13.185  11.658  1.00  0.00     0.164 HD
ENDBRANCH   7   8
BRANCH   7  13
ATOM     13  C   UNL     1      32.150  14.377   9.518  1.00  0.00     0.057 A 
ATOM     14  C   UNL     1      32.538  15.282   8.570  1.00  0.00    -0.085 A 
ATOM     15  C   UNL     1      33.081  13.733  10.487  1.00  0.00     0.341 A 
ATOM     16  C   UNL     1      34.005  15.602   8.590  1.00  0.00     0.010 A 
ATOM     17  O   UNL     1      34.413  14.096  10.455  1.00  0.00    -0.423 OA
ATOM     18  O   UNL     1      32.706  12.897  11.309  1.00  0.00    -0.246 OA
ATOM     19  C   UNL     1      34.580  16.512   7.682  1.00  0.00     0.011 A 
ATOM     20  C   UNL     1      34.866  15.017   9.510  1.00  0.00     0.137 A 
ATOM     21  C   UNL     1      35.948  16.814   7.703  1.00  0.00     0.001 A 
ATOM     22  C   UNL     1      36.236  15.305   9.548  1.00  0.00     0.048 A 
ATOM     23  C   UNL     1      36.778  16.208   8.640  1.00  0.00     0.004 A 
ATOM     24  O   UNL     1      31.785  15.854   7.720  1.00  0.00    -0.872 OA
ENDBRANCH   7  13
ENDBRANCH   1   7
BRANCH   3  25
ATOM     25  N   UNL     1      29.888   8.916   9.999  1.00  0.00     0.062 N 
ATOM     26  O   UNL     1      28.747   8.428  10.055  1.00  0.00    -0.258 OA
ATOM     27  O   UNL     1      30.873   8.444  10.584  1.00  0.00    -0.258 OA
ENDBRANCH   3  25
TORSDOF 4
ENDMDL
MODEL 6
REMARK VINA RESULT:    -8.086      4.784      7.120
REMARK INTER + INTRA:         -11.004
REMARK INTER:                  -9.933
REMARK INTRA:                  -1.071
REMARK UNBOUND:                -1.027
REMARK SMILES CC(=O)N[C@H](c1cccc([N+](=O)[O-])c1)c1c([O-])c2ccccc2oc1=O
REMARK SMILES IDX 6 1 14 2 10 3 9 4 8 5 7 6 5 7 4 8 2 9 3 10 1 11 15 13 16 14
REMARK SMILES IDX 25 15 18 16 24 17 26 18 19 19 23 20 20 21 22 22 21 23 17 24
REMARK SMILES IDX 11 25 12 26 13 27
REMARK H PARENT 4 12
ROOT
ATOM      1  C   UNL     1      27.676   9.545  12.908  1.00  0.00    -0.014 A 
ATOM      2  C   UNL     1      27.336   8.797  11.769  1.00  0.00     0.091 A 
ATOM      3  C   UNL     1      26.189   7.992  11.779  1.00  0.00     0.269 A 
ATOM      4  C   UNL     1      25.370   7.925  12.915  1.00  0.00     0.085 A 
ATOM      5  C   UNL     1      25.702   8.670  14.045  1.00  0.00     0.007 A 
ATOM      6  C   UNL     1      26.842   9.475  14.040  1.00  0.00     0.007 A 
ENDROOT
BRANCH   1   7
ATOM      7  C   UNL     1      28.922  10.433  12.903  1.00  0.00     0.150 C 
BRANCH   7   8
ATOM      8  N   UNL     1      30.091   9.631  13.217  1.00  0.00    -0.345 N 
ATOM      9  C   UNL     1      30.656   9.510  14.449  1.00  0.00     0.217 C 
ATOM     10  O   UNL     1      30.251  10.073  15.463  1.00  0.00    -0.275 OA
ATOM     11  C   UNL     1      31.876   8.630  14.460  1.00  0.00     0.114 C 
ATOM     12  H   UNL     1      30.493   9.176  12.388  1.00  0.00     0.164 HD
ENDBRANCH   7   8
BRANCH   7  13
ATOM     13  C   UNL     1      29.106  11.181  11.572  1.00  0.00     0.057 A 
ATOM     14  C   UNL     1      29.764  10.696  10.476  1.00  0.00    -0.085 A 
ATOM     15  C   UNL     1      28.478  12.530  11.638  1.00  0.00     0.341 A 
ATOM     16  C   UNL     1      29.792  11.640   9.308  1.00  0.00     0.010 A 
ATOM     17  O   UNL     1      28.528  13.332  10.515  1.00  0.00    -0.423 OA
ATOM     18  O   UNL     1      27.919  12.951  12.651  1.00  0.00    -0.246 OA
ATOM     19  C   UNL     1      30.429  11.307   8.098  1.00  0.00     0.011 A 
ATOM     20  C   UNL     1      29.186  12.889   9.366  1.00  0.00     0.137 A 
ATOM     21  C   UNL     1      30.452  12.186   7.007  1.00  0.00     0.001 A 
ATOM     22  C   UNL     1      29.196  13.782   8.288  1.00  0.00     0.048 A 
ATOM     23  C   UNL     1      29.833  13.427   7.103  1.00  0.00     0.004 A 
ATOM     24  O   UNL     1      30.319   9.557  10.372  1.00  0.00    -0.872 OA
ENDBRANCH   7  13
ENDBRANCH   1   7
BRANCH   3  25
ATOM     25  N   UNL     1      25.835   7.211  10.589  1.00  0.00     0.062 N 
ATOM     26  O   UNL     1      26.654   7.178   9.655  1.00  0.00    -0.258 OA
ATOM     27  O   UNL     1      24.742   6.627  10.572  1.00  0.00    -0.258 OA
ENDBRANCH   3  25
TORSDOF 4
ENDMDL
MODEL 7
REMARK VINA RESULT:    -8.035      5.534      7.379
REMARK INTER + INTRA:         -10.941
REMARK INTER:                  -9.582
REMARK INTRA:                  -1.359
REMARK UNBOUND:                -1.027
REMARK SMILES CC(=O)N[C@H](c1cccc([N+](=O)[O-])c1)c1c([O-])c2ccccc2oc1=O
REMARK SMILES IDX 6 1 14 2 10 3 9 4 8 5 7 6 5 7 4 8 2 9 3 10 1 11 15 13 16 14
REMARK SMILES IDX 25 15 18 16 24 17 26 18 19 19 23 20 20 21 22 22 21 23 17 24
REMARK SMILES IDX 11 25 12 26 13 27
REMARK H PARENT 4 12
ROOT
ATOM      1  C   UNL     1      33.195  10.506  15.054  1.00  0.00    -0.014 A 
ATOM      2  C   UNL     1      34.472  10.052  15.424  1.00  0.00     0.091 A 
ATOM      3  C   UNL     1      34.766   8.683  15.381  1.00  0.00     0.269 A 
ATOM      4  C   UNL     1      33.800   7.754  14.969  1.00  0.00     0.085 A 
ATOM      5  C   UNL     1      32.533   8.202  14.597  1.00  0.00     0.007 A 
ATOM      6  C   UNL     1      32.236   9.564  14.636  1.00  0.00     0.007 A 
ENDROOT
BRANCH   1   7
ATOM      7  C   UNL     1      32.869  12.000  15.089  1.00  0.00     0.150 C 
BRANCH   7   8
ATOM      8  N   UNL     1      33.997  12.730  15.640  1.00  0.00    -0.345 N 
ATOM      9  C   UNL     1      33.916  13.894  16.341  1.00  0.00     0.217 C 
ATOM     10  O   UNL     1      32.870  14.486  16.596  1.00  0.00    -0.275 OA
ATOM     11  C   UNL     1      35.257  14.430  16.761  1.00  0.00     0.114 C 
ATOM     12  H   UNL     1      34.900  12.296  15.412  1.00  0.00     0.164 HD
ENDBRANCH   7   8
BRANCH   7  13
ATOM     13  C   UNL     1      32.476  12.549  13.707  1.00  0.00     0.057 A 
ATOM     14  C   UNL     1      33.341  12.788  12.675  1.00  0.00    -0.085 A 
ATOM     15  C   UNL     1      31.010  12.806  13.642  1.00  0.00     0.341 A 
ATOM     16  C   UNL     1      32.686  13.325  11.436  1.00  0.00     0.010 A 
ATOM     17  O   UNL     1      30.480  13.281  12.460  1.00  0.00    -0.423 OA
ATOM     18  O   UNL     1      30.262  12.610  14.600  1.00  0.00    -0.246 OA
ATOM     19  C   UNL     1      33.424  13.631  10.277  1.00  0.00     0.011 A 
ATOM     20  C   UNL     1      31.315  13.543  11.372  1.00  0.00     0.137 A 
ATOM     21  C   UNL     1      32.812  14.129   9.119  1.00  0.00     0.001 A 
ATOM     22  C   UNL     1      30.683  14.038  10.225  1.00  0.00     0.048 A 
ATOM     23  C   UNL     1      31.436  14.332   9.093  1.00  0.00     0.004 A 
ATOM     24  O   UNL     1      34.597  12.591  12.682  1.00  0.00    -0.872 OA
ENDBRANCH   7  13
ENDBRANCH   1   7
BRANCH   3  25
ATOM     25  N   UNL     1      36.100   8.209  15.768  1.00  0.00     0.062 N 
ATOM     26  O   UNL     1      37.040   9.019  15.705  1.00  0.00    -0.258 OA
ATOM     27  O   UNL     1      36.223   7.031  16.133  1.00  0.00    -0.258 OA
ENDBRANCH   3  25
TORSDOF 4
ENDMDL
MODEL 8
REMARK VINA RESULT:    -7.984      5.055      8.981
REMARK INTER + INTRA:         -10.878
REMARK INTER:                  -9.793
REMARK INTRA:                  -1.085
REMARK UNBOUND:                -1.027
REMARK SMILES CC(=O)N[C@H](c1cccc([N+](=O)[O-])c1)c1c([O-])c2ccccc2oc1=O
REMARK SMILES IDX 6 1 14 2 10 3 9 4 8 5 7 6 5 7 4 8 2 9 3 10 1 11 15 13 16 14
REMARK SMILES IDX 25 15 18 16 24 17 26 18 19 19 23 20 20 21 22 22 21 23 17 24
REMARK SMILES IDX 11 25 12 26 13 27
REMARK H PARENT 4 12
ROOT
ATOM      1  C   UNL     1      30.986  10.677  13.587  1.00  0.00    -0.014 A 
ATOM      2  C   UNL     1      32.030  11.468  14.095  1.00  0.00     0.091 A 
ATOM      3  C   UNL     1      33.073  10.869  14.813  1.00  0.00     0.269 A 
ATOM      4  C   UNL     1      33.092   9.484  15.030  1.00  0.00     0.085 A 
ATOM      5  C   UNL     1      32.060   8.696  14.523  1.00  0.00     0.007 A 
ATOM      6  C   UNL     1      31.019   9.287  13.806  1.00  0.00     0.007 A 
ENDROOT
BRANCH   1   7
ATOM      7  C   UNL     1      29.847  11.322  12.794  1.00  0.00     0.150 C 
BRANCH   7   8
ATOM      8  N   UNL     1      30.400  12.164  11.748  1.00  0.00    -0.345 N 
ATOM      9  C   UNL     1      30.151  13.492  11.592  1.00  0.00     0.217 C 
ATOM     10  O   UNL     1      29.416  14.157  12.318  1.00  0.00    -0.275 OA
ATOM     11  C   UNL     1      30.846  14.092  10.399  1.00  0.00     0.114 C 
ATOM     12  H   UNL     1      30.988  11.641  11.087  1.00  0.00     0.164 HD
ENDBRANCH   7   8
BRANCH   7  13
ATOM     13  C   UNL     1      28.875  10.283  12.211  1.00  0.00     0.057 A 
ATOM     14  C   UNL     1      29.097   9.532  11.090  1.00  0.00    -0.085 A 
ATOM     15  C   UNL     1      27.633  10.211  13.030  1.00  0.00     0.341 A 
ATOM     16  C   UNL     1      27.976   8.593  10.747  1.00  0.00     0.010 A 
ATOM     17  O   UNL     1      26.656   9.307  12.661  1.00  0.00    -0.423 OA
ATOM     18  O   UNL     1      27.449  10.923  14.017  1.00  0.00    -0.246 OA
ATOM     19  C   UNL     1      28.033   7.747   9.624  1.00  0.00     0.011 A 
ATOM     20  C   UNL     1      26.829   8.513  11.526  1.00  0.00     0.137 A 
ATOM     21  C   UNL     1      26.989   6.868   9.306  1.00  0.00     0.001 A 
ATOM     22  C   UNL     1      25.774   7.642  11.227  1.00  0.00     0.048 A 
ATOM     23  C   UNL     1      25.856   6.815  10.111  1.00  0.00     0.004 A 
ATOM     24  O   UNL     1      30.135   9.560  10.356  1.00  0.00    -0.872 OA
ENDBRANCH   7  13
ENDBRANCH   1   7
BRANCH   3  25
ATOM     25  N   UNL     1      34.163  11.695  15.344  1.00  0.00     0.062 N 
ATOM     26  O   UNL     1      34.165  12.903  15.054  1.00  0.00    -0.258 OA
ATOM     27  O   UNL     1      35.025  11.151  16.050  1.00  0.00    -0.258 OA
ENDBRANCH   3  25
TORSDOF 4
ENDMDL
MODEL 9
REMARK VINA RESULT:    -7.892      4.782      7.464
REMARK INTER + INTRA:         -10.765
REMARK INTER:                  -9.438
REMARK INTRA:                  -1.327
REMARK UNBOUND:                -1.027
REMARK SMILES CC(=O)N[C@H](c1cccc([N+](=O)[O-])c1)c1c([O-])c2ccccc2oc1=O
REMARK SMILES IDX 6 1 14 2 10 3 9 4 8 5 7 6 5 7 4 8 2 9 3 10 1 11 15 13 16 14
REMARK SMILES IDX 25 15 18 16 24 17 26 18 19 19 23 20 20 21 22 22 21 23 17 24
REMARK SMILES IDX 11 25 12 26 13 27
REMARK H PARENT 4 12
ROOT
ATOM      1  C   UNL     1      29.841   9.869  13.633  1.00  0.00    -0.014 A 
ATOM      2  C   UNL     1      31.097   9.244  13.700  1.00  0.00     0.091 A 
ATOM      3  C   UNL     1      31.945   9.496  14.787  1.00  0.00     0.269 A 
ATOM      4  C   UNL     1      31.554  10.366  15.815  1.00  0.00     0.085 A 
ATOM      5  C   UNL     1      30.306  10.984  15.754  1.00  0.00     0.007 A 
ATOM      6  C   UNL     1      29.457  10.735  14.675  1.00  0.00     0.007 A 
ENDROOT
BRANCH   1   7
ATOM      7  C   UNL     1      28.905   9.593  12.455  1.00  0.00     0.150 C 
BRANCH   7   8
ATOM      8  N   UNL     1      27.526   9.751  12.882  1.00  0.00    -0.345 N 
ATOM      9  C   UNL     1      26.446   9.177  12.286  1.00  0.00     0.217 C 
ATOM     10  O   UNL     1      26.496   8.451  11.296  1.00  0.00    -0.275 OA
ATOM     11  C   UNL     1      25.141   9.546  12.937  1.00  0.00     0.114 C 
ATOM     12  H   UNL     1      27.429  10.389  13.682  1.00  0.00     0.164 HD
ENDBRANCH   7   8
BRANCH   7  13
ATOM     13  C   UNL     1      29.213  10.483  11.238  1.00  0.00     0.057 A 
ATOM     14  C   UNL     1      28.839  11.791  11.100  1.00  0.00    -0.085 A 
ATOM     15  C   UNL     1      29.968   9.718  10.207  1.00  0.00     0.341 A 
ATOM     16  C   UNL     1      29.273  12.421   9.808  1.00  0.00     0.010 A 
ATOM     17  O   UNL     1      30.349  10.374   9.054  1.00  0.00    -0.423 OA
ATOM     18  O   UNL     1      30.263   8.531  10.348  1.00  0.00    -0.246 OA
ATOM     19  C   UNL     1      28.973  13.760   9.496  1.00  0.00     0.011 A 
ATOM     20  C   UNL     1      29.997  11.710   8.858  1.00  0.00     0.137 A 
ATOM     21  C   UNL     1      29.381  14.349   8.292  1.00  0.00     0.001 A 
ATOM     22  C   UNL     1      30.415  12.280   7.649  1.00  0.00     0.048 A 
ATOM     23  C   UNL     1      30.105  13.606   7.366  1.00  0.00     0.004 A 
ATOM     24  O   UNL     1      28.192  12.484  11.947  1.00  0.00    -0.872 OA
ENDBRANCH   7  13
ENDBRANCH   1   7
BRANCH   3  25
ATOM     25  N   UNL     1      33.257   8.844  14.857  1.00  0.00     0.062 N 
ATOM     26  O   UNL     1      34.105   9.333  15.622  1.00  0.00    -0.258 OA
ATOM     27  O   UNL     1      33.456   7.845  14.150  1.00  0.00    -0.258 OA
ENDBRANCH   3  25
TORSDOF 4
ENDMDL
MODEL 10
REMARK VINA RESULT:    -7.881      4.914      7.018
REMARK INTER + INTRA:         -10.751
REMARK INTER:                  -9.583
REMARK INTRA:                  -1.168
REMARK UNBOUND:                -1.027
REMARK SMILES CC(=O)N[C@H](c1cccc([N+](=O)[O-])c1)c1c([O-])c2ccccc2oc1=O
REMARK SMILES IDX 6 1 14 2 10 3 9 4 8 5 7 6 5 7 4 8 2 9 3 10 1 11 15 13 16 14
REMARK SMILES IDX 25 15 18 16 24 17 26 18 19 19 23 20 20 21 22 22 21 23 17 24
REMARK SMILES IDX 11 25 12 26 13 27
REMARK H PARENT 4 12
ROOT
ATOM      1  C   UNL     1      27.288  10.912  13.101  1.00  0.00    -0.014 A 
ATOM      2  C   UNL     1      27.065   9.575  12.734  1.00  0.00     0.091 A 
ATOM      3  C   UNL     1      25.799   9.003  12.919  1.00  0.00     0.269 A 
ATOM      4  C   UNL     1      24.747   9.750  13.467  1.00  0.00     0.085 A 
ATOM      5  C   UNL     1      24.965  11.079  13.829  1.00  0.00     0.007 A 
ATOM      6  C   UNL     1      26.222  11.654  13.644  1.00  0.00     0.007 A 
ENDROOT
BRANCH   1   7
ATOM      7  C   UNL     1      28.664  11.548  12.893  1.00  0.00     0.150 C 
BRANCH   7   8
ATOM      8  N   UNL     1      29.676  10.742  13.553  1.00  0.00    -0.345 N 
ATOM      9  C   UNL     1      29.979  10.789  14.879  1.00  0.00     0.217 C 
ATOM     10  O   UNL     1      29.437  11.529  15.695  1.00  0.00    -0.275 OA
ATOM     11  C   UNL     1      31.092   9.854  15.268  1.00  0.00     0.114 C 
ATOM     12  H   UNL     1      30.189  10.137  12.900  1.00  0.00     0.164 HD
ENDBRANCH   7   8
BRANCH   7  13
ATOM     13  C   UNL     1      29.001  11.749  11.406  1.00  0.00     0.057 A 
ATOM     14  C   UNL     1      29.632  10.836  10.607  1.00  0.00    -0.085 A 
ATOM     15  C   UNL     1      28.558  13.094  10.945  1.00  0.00     0.341 A 
ATOM     16  C   UNL     1      29.835  11.294   9.192  1.00  0.00     0.010 A 
ATOM     17  O   UNL     1      28.762  13.434   9.623  1.00  0.00    -0.423 OA
ATOM     18  O   UNL     1      28.020  13.907  11.698  1.00  0.00    -0.246 OA
ATOM     19  C   UNL     1      30.470  10.484   8.231  1.00  0.00     0.011 A 
ATOM     20  C   UNL     1      29.400  12.541   8.760  1.00  0.00     0.137 A 
ATOM     21  C   UNL     1      30.656  10.910   6.909  1.00  0.00     0.001 A 
ATOM     22  C   UNL     1      29.575  12.986   7.444  1.00  0.00     0.048 A 
ATOM     23  C   UNL     1      30.205  12.165   6.515  1.00  0.00     0.004 A 
ATOM     24  O   UNL     1      30.033   9.680  10.953  1.00  0.00    -0.872 OA
ENDBRANCH   7  13
ENDBRANCH   1   7
BRANCH   3  25
ATOM     25  N   UNL     1      25.566   7.606  12.536  1.00  0.00     0.062 N 
ATOM     26  O   UNL     1      24.848   7.391  11.545  1.00  0.00    -0.258 OA
ATOM     27  O   UNL     1      26.091   6.713  13.217  1.00  0.00    -0.258 OA
ENDBRANCH   3  25
TORSDOF 4
ENDMDL
MODEL 11
REMARK VINA RESULT:    -7.819      4.596      7.080
REMARK INTER + INTRA:         -10.674
REMARK INTER:                  -9.340
REMARK INTRA:                  -1.335
REMARK UNBOUND:                -1.027
REMARK SMILES CC(=O)N[C@H](c1cccc([N+](=O)[O-])c1)c1c([O-])c2ccccc2oc1=O
REMARK SMILES IDX 6 1 14 2 10 3 9 4 8 5 7 6 5 7 4 8 2 9 3 10 1 11 15 13 16 14
REMARK SMILES IDX 25 15 18 16 24 17 26 18 19 19 23 20 20 21 22 22 21 23 17 24
REMARK SMILES IDX 11 25 12 26 13 27
REMARK H PARENT 4 12
ROOT
ATOM      1  C   UNL     1      30.310  12.308  13.619  1.00  0.00    -0.014 A 
ATOM      2  C   UNL     1      31.683  12.431  13.354  1.00  0.00     0.091 A 
ATOM      3  C   UNL     1      32.452  13.358  14.071  1.00  0.00     0.269 A 
ATOM      4  C   UNL     1      31.866  14.167  15.055  1.00  0.00     0.085 A 
ATOM      5  C   UNL     1      30.504  14.044  15.323  1.00  0.00     0.007 A 
ATOM      6  C   UNL     1      29.735  13.121  14.614  1.00  0.00     0.007 A 
ENDROOT
BRANCH   1   7
ATOM      7  C   UNL     1      29.465  11.292  12.848  1.00  0.00     0.150 C 
BRANCH   7   8
ATOM      8  N   UNL     1      28.077  11.401  13.261  1.00  0.00    -0.345 N 
ATOM      9  C   UNL     1      27.232  10.355  13.469  1.00  0.00     0.217 C 
ATOM     10  O   UNL     1      27.533   9.173  13.326  1.00  0.00    -0.275 OA
ATOM     11  C   UNL     1      25.844  10.780  13.866  1.00  0.00     0.114 C 
ATOM     12  H   UNL     1      27.765  12.376  13.350  1.00  0.00     0.164 HD
ENDBRANCH   7   8
BRANCH   7  13
ATOM     13  C   UNL     1      29.602  11.449  11.324  1.00  0.00     0.057 A 
ATOM     14  C   UNL     1      29.242  12.555  10.607  1.00  0.00    -0.085 A 
ATOM     15  C   UNL     1      30.172  10.212  10.719  1.00  0.00     0.341 A 
ATOM     16  C   UNL     1      29.486  12.437   9.130  1.00  0.00     0.010 A 
ATOM     17  O   UNL     1      30.385  10.189   9.356  1.00  0.00    -0.423 OA
ATOM     18  O   UNL     1      30.457   9.219  11.389  1.00  0.00    -0.246 OA
ATOM     19  C   UNL     1      29.172  13.480   8.238  1.00  0.00     0.011 A 
ATOM     20  C   UNL     1      30.038  11.290   8.573  1.00  0.00     0.137 A 
ATOM     21  C   UNL     1      29.404  13.371   6.861  1.00  0.00     0.001 A 
ATOM     22  C   UNL     1      30.279  11.161   7.199  1.00  0.00     0.048 A 
ATOM     23  C   UNL     1      29.960  12.207   6.340  1.00  0.00     0.004 A 
ATOM     24  O   UNL     1      28.748  13.630  11.074  1.00  0.00    -0.872 OA
ENDBRANCH   7  13
ENDBRANCH   1   7
BRANCH   3  25
ATOM     25  N   UNL     1      33.887  13.486  13.794  1.00  0.00     0.062 N 
ATOM     26  O   UNL     1      34.498  14.422  14.337  1.00  0.00    -0.258 OA
ATOM     27  O   UNL     1      34.416  12.662  13.034  1.00  0.00    -0.258 OA
ENDBRANCH   3  25
TORSDOF 4
ENDMDL
MODEL 12
REMARK VINA RESULT:    -7.797      2.195      6.028
REMARK INTER + INTRA:         -10.648
REMARK INTER:                  -9.510
REMARK INTRA:                  -1.138
REMARK UNBOUND:                -1.027
REMARK SMILES CC(=O)N[C@H](c1cccc([N+](=O)[O-])c1)c1c([O-])c2ccccc2oc1=O
REMARK SMILES IDX 6 1 14 2 10 3 9 4 8 5 7 6 5 7 4 8 2 9 3 10 1 11 15 13 16 14
REMARK SMILES IDX 25 15 18 16 24 17 26 18 19 19 23 20 20 21 22 22 21 23 17 24
REMARK SMILES IDX 11 25 12 26 13 27
REMARK H PARENT 4 12
ROOT
ATOM      1  C   UNL     1      31.826  15.053   8.624  1.00  0.00    -0.014 A 
ATOM      2  C   UNL     1      33.205  14.818   8.756  1.00  0.00     0.091 A 
ATOM      3  C   UNL     1      34.120  15.823   8.415  1.00  0.00     0.269 A 
ATOM      4  C   UNL     1      33.677  17.067   7.944  1.00  0.00     0.085 A 
ATOM      5  C   UNL     1      32.309  17.304   7.816  1.00  0.00     0.007 A 
ATOM      6  C   UNL     1      31.394  16.308   8.155  1.00  0.00     0.007 A 
ENDROOT
BRANCH   1   7
ATOM      7  C   UNL     1      30.820  13.965   9.002  1.00  0.00     0.150 C 
BRANCH   7   8
ATOM      8  N   UNL     1      31.310  12.673   8.554  1.00  0.00    -0.345 N 
ATOM      9  C   UNL     1      30.683  11.858   7.664  1.00  0.00     0.217 C 
ATOM     10  O   UNL     1      29.608  12.107   7.123  1.00  0.00    -0.275 OA
ATOM     11  C   UNL     1      31.420  10.570   7.413  1.00  0.00     0.114 C 
ATOM     12  H   UNL     1      32.188  12.400   9.014  1.00  0.00     0.164 HD
ENDBRANCH   7   8
BRANCH   7  13
ATOM     13  C   UNL     1      30.512  13.946  10.509  1.00  0.00     0.057 A 
ATOM     14  C   UNL     1      31.340  13.455  11.480  1.00  0.00    -0.085 A 
ATOM     15  C   UNL     1      29.167  14.527  10.776  1.00  0.00     0.341 A 
ATOM     16  C   UNL     1      30.787  13.564  12.872  1.00  0.00     0.010 A 
ATOM     17  O   UNL     1      28.737  14.610  12.085  1.00  0.00    -0.423 OA
ATOM     18  O   UNL     1      28.431  14.932   9.876  1.00  0.00    -0.246 OA
ATOM     19  C   UNL     1      31.503  13.106  13.995  1.00  0.00     0.011 A 
ATOM     20  C   UNL     1      29.541  14.126  13.119  1.00  0.00     0.137 A 
ATOM     21  C   UNL     1      30.988  13.211  15.294  1.00  0.00     0.001 A 
ATOM     22  C   UNL     1      29.008  14.242  14.409  1.00  0.00     0.048 A 
ATOM     23  C   UNL     1      29.737  13.782  15.501  1.00  0.00     0.004 A 
ATOM     24  O   UNL     1      32.492  12.947  11.303  1.00  0.00    -0.872 OA
ENDBRANCH   7  13
ENDBRANCH   1   7
BRANCH   3  25
ATOM     25  N   UNL     1      35.560  15.577   8.553  1.00  0.00     0.062 N 
ATOM     26  O   UNL     1      35.922  14.711   9.366  1.00  0.00    -0.258 OA
ATOM     27  O   UNL     1      36.340  16.244   7.858  1.00  0.00    -0.258 OA
ENDBRANCH   3  25
TORSDOF 4
ENDMDL
MODEL 13
REMARK VINA RESULT:    -7.795      2.332      6.522
REMARK INTER + INTRA:         -10.645
REMARK INTER:                  -9.542
REMARK INTRA:                  -1.103
REMARK UNBOUND:                -1.027
REMARK SMILES CC(=O)N[C@H](c1cccc([N+](=O)[O-])c1)c1c([O-])c2ccccc2oc1=O
REMARK SMILES IDX 6 1 14 2 10 3 9 4 8 5 7 6 5 7 4 8 2 9 3 10 1 11 15 13 16 14
REMARK SMILES IDX 25 15 18 16 24 17 26 18 19 19 23 20 20 21 22 22 21 23 17 24
REMARK SMILES IDX 11 25 12 26 13 27
REMARK H PARENT 4 12
ROOT
ATOM      1  C   UNL     1      32.265  14.046   8.928  1.00  0.00    -0.014 A 
ATOM      2  C   UNL     1      33.092  13.444   9.892  1.00  0.00     0.091 A 
ATOM      3  C   UNL     1      34.310  14.044  10.239  1.00  0.00     0.269 A 
ATOM      4  C   UNL     1      34.716  15.243   9.636  1.00  0.00     0.085 A 
ATOM      5  C   UNL     1      33.896  15.844   8.683  1.00  0.00     0.007 A 
ATOM      6  C   UNL     1      32.681  15.253   8.336  1.00  0.00     0.007 A 
ENDROOT
BRANCH   1   7
ATOM      7  C   UNL     1      30.930  13.402   8.550  1.00  0.00     0.150 C 
BRANCH   7   8
ATOM      8  N   UNL     1      31.163  12.063   8.040  1.00  0.00    -0.345 N 
ATOM      9  C   UNL     1      30.399  11.430   7.110  1.00  0.00     0.217 C 
ATOM     10  O   UNL     1      29.400  11.910   6.580  1.00  0.00    -0.275 OA
ATOM     11  C   UNL     1      30.872  10.036   6.799  1.00  0.00     0.114 C 
ATOM     12  H   UNL     1      31.965  11.602   8.489  1.00  0.00     0.164 HD
ENDBRANCH   7   8
BRANCH   7  13
ATOM     13  C   UNL     1      29.934  13.382   9.722  1.00  0.00     0.057 A 
ATOM     14  C   UNL     1      29.912  12.454  10.726  1.00  0.00    -0.085 A 
ATOM     15  C   UNL     1      28.971  14.513   9.612  1.00  0.00     0.341 A 
ATOM     16  C   UNL     1      28.830  12.675  11.744  1.00  0.00     0.010 A 
ATOM     17  O   UNL     1      28.018  14.660  10.599  1.00  0.00    -0.423 OA
ATOM     18  O   UNL     1      28.997  15.315   8.677  1.00  0.00    -0.246 OA
ATOM     19  C   UNL     1      28.658  11.814  12.845  1.00  0.00     0.011 A 
ATOM     20  C   UNL     1      27.948  13.744  11.649  1.00  0.00     0.137 A 
ATOM     21  C   UNL     1      27.650  12.023  13.796  1.00  0.00     0.001 A 
ATOM     22  C   UNL     1      26.935  13.971  12.589  1.00  0.00     0.048 A 
ATOM     23  C   UNL     1      26.787  13.105  13.668  1.00  0.00     0.004 A 
ATOM     24  O   UNL     1      30.706  11.470  10.862  1.00  0.00    -0.872 OA
ENDBRANCH   7  13
ENDBRANCH   1   7
BRANCH   3  25
ATOM     25  N   UNL     1      35.173  13.415  11.245  1.00  0.00     0.062 N 
ATOM     26  O   UNL     1      36.157  12.772  10.841  1.00  0.00    -0.258 OA
ATOM     27  O   UNL     1      34.880  13.553  12.441  1.00  0.00    -0.258 OA
ENDBRANCH   3  25
TORSDOF 4
ENDMDL
MODEL 14
REMARK VINA RESULT:    -7.789      4.815      7.356
REMARK INTER + INTRA:         -10.638
REMARK INTER:                  -9.535
REMARK INTRA:                  -1.102
REMARK UNBOUND:                -1.027
REMARK SMILES CC(=O)N[C@H](c1cccc([N+](=O)[O-])c1)c1c([O-])c2ccccc2oc1=O
REMARK SMILES IDX 6 1 14 2 10 3 9 4 8 5 7 6 5 7 4 8 2 9 3 10 1 11 15 13 16 14
REMARK SMILES IDX 25 15 18 16 24 17 26 18 19 19 23 20 20 21 22 22 21 23 17 24
REMARK SMILES IDX 11 25 12 26 13 27
REMARK H PARENT 4 12
ROOT
ATOM      1  C   UNL     1      30.892  10.177  13.395  1.00  0.00    -0.014 A 
ATOM      2  C   UNL     1      31.379  11.492  13.479  1.00  0.00     0.091 A 
ATOM      3  C   UNL     1      32.510  11.769  14.259  1.00  0.00     0.269 A 
ATOM      4  C   UNL     1      33.166  10.747  14.958  1.00  0.00     0.085 A 
ATOM      5  C   UNL     1      32.687   9.440  14.874  1.00  0.00     0.007 A 
ATOM      6  C   UNL     1      31.563   9.159  14.097  1.00  0.00     0.007 A 
ENDROOT
BRANCH   1   7
ATOM      7  C   UNL     1      29.663   9.865  12.539  1.00  0.00     0.150 C 
BRANCH   7   8
ATOM      8  N   UNL     1      28.466  10.326  13.220  1.00  0.00    -0.345 N 
ATOM      9  C   UNL     1      27.228   9.777  13.097  1.00  0.00     0.217 C 
ATOM     10  O   UNL     1      26.957   8.814  12.384  1.00  0.00    -0.275 OA
ATOM     11  C   UNL     1      26.178  10.488  13.906  1.00  0.00     0.114 C 
ATOM     12  H   UNL     1      28.635  11.161  13.796  1.00  0.00     0.164 HD
ENDBRANCH   7   8
BRANCH   7  13
ATOM     13  C   UNL     1      29.762  10.466  11.126  1.00  0.00     0.057 A 
ATOM     14  C   UNL     1      29.369  11.727  10.773  1.00  0.00    -0.085 A 
ATOM     15  C   UNL     1      30.336   9.474  10.174  1.00  0.00     0.341 A 
ATOM     16  C   UNL     1      29.580  12.053   9.323  1.00  0.00     0.010 A 
ATOM     17  O   UNL     1      30.518   9.857   8.861  1.00  0.00    -0.423 OA
ATOM     18  O   UNL     1      30.651   8.334  10.517  1.00  0.00    -0.246 OA
ATOM     19  C   UNL     1      29.230  13.305   8.784  1.00  0.00     0.011 A 
ATOM     20  C   UNL     1      30.136  11.133   8.443  1.00  0.00     0.137 A 
ATOM     21  C   UNL     1      29.430  13.611   7.431  1.00  0.00     0.001 A 
ATOM     22  C   UNL     1      30.346  11.418   7.088  1.00  0.00     0.048 A 
ATOM     23  C   UNL     1      29.991  12.664   6.581  1.00  0.00     0.004 A 
ATOM     24  O   UNL     1      28.870  12.606  11.546  1.00  0.00    -0.872 OA
ENDBRANCH   7  13
ENDBRANCH   1   7
BRANCH   3  25
ATOM     25  N   UNL     1      33.019  13.142  14.346  1.00  0.00     0.062 N 
ATOM     26  O   UNL     1      32.189  14.067  14.338  1.00  0.00    -0.258 OA
ATOM     27  O   UNL     1      34.244  13.312  14.419  1.00  0.00    -0.258 OA
ENDBRANCH   3  25
TORSDOF 4
ENDMDL
MODEL 15
REMARK VINA RESULT:    -7.787      1.828      3.216
REMARK INTER + INTRA:         -10.635
REMARK INTER:                  -9.943
REMARK INTRA:                  -0.692
REMARK UNBOUND:                -1.027
REMARK SMILES CC(=O)N[C@H](c1cccc([N+](=O)[O-])c1)c1c([O-])c2ccccc2oc1=O
REMARK SMILES IDX 6 1 14 2 10 3 9 4 8 5 7 6 5 7 4 8 2 9 3 10 1 11 15 13 16 14
REMARK SMILES IDX 25 15 18 16 24 17 26 18 19 19 23 20 20 21 22 22 21 23 17 24
REMARK SMILES IDX 11 25 12 26 13 27
REMARK H PARENT 4 12
ROOT
ATOM      1  C   UNL     1      29.974  12.165  10.226  1.00  0.00    -0.014 A 
ATOM      2  C   UNL     1      30.172  11.748   8.899  1.00  0.00     0.091 A 
ATOM      3  C   UNL     1      30.016  10.397   8.562  1.00  0.00     0.269 A 
ATOM      4  C   UNL     1      29.662   9.451   9.534  1.00  0.00     0.085 A 
ATOM      5  C   UNL     1      29.461   9.862  10.850  1.00  0.00     0.007 A 
ATOM      6  C   UNL     1      29.613  11.206  11.192  1.00  0.00     0.007 A 
ENDROOT
BRANCH   1   7
ATOM      7  C   UNL     1      30.133  13.639  10.602  1.00  0.00     0.150 C 
BRANCH   7   8
ATOM      8  N   UNL     1      30.271  13.761  12.042  1.00  0.00    -0.345 N 
ATOM      9  C   UNL     1      29.468  14.504  12.851  1.00  0.00     0.217 C 
ATOM     10  O   UNL     1      28.518  15.179  12.464  1.00  0.00    -0.275 OA
ATOM     11  C   UNL     1      29.874  14.457  14.299  1.00  0.00     0.114 C 
ATOM     12  H   UNL     1      31.084  13.248  12.408  1.00  0.00     0.164 HD
ENDBRANCH   7   8
BRANCH   7  13
ATOM     13  C   UNL     1      31.313  14.308   9.875  1.00  0.00     0.057 A 
ATOM     14  C   UNL     1      31.205  15.228   8.870  1.00  0.00    -0.085 A 
ATOM     15  C   UNL     1      32.610  13.803  10.408  1.00  0.00     0.341 A 
ATOM     16  C   UNL     1      32.521  15.718   8.340  1.00  0.00     0.010 A 
ATOM     17  O   UNL     1      33.778  14.318   9.882  1.00  0.00    -0.423 OA
ATOM     18  O   UNL     1      32.674  12.950  11.293  1.00  0.00    -0.246 OA
ATOM     19  C   UNL     1      32.599  16.665   7.301  1.00  0.00     0.011 A 
ATOM     20  C   UNL     1      33.729  15.261   8.854  1.00  0.00     0.137 A 
ATOM     21  C   UNL     1      33.828  17.124   6.810  1.00  0.00     0.001 A 
ATOM     22  C   UNL     1      34.968  15.708   8.378  1.00  0.00     0.048 A 
ATOM     23  C   UNL     1      35.016  16.645   7.351  1.00  0.00     0.004 A 
ATOM     24  O   UNL     1      30.124  15.685   8.379  1.00  0.00    -0.872 OA
ENDBRANCH   7  13
ENDBRANCH   1   7
BRANCH   3  25
ATOM     25  N   UNL     1      30.223   9.962   7.176  1.00  0.00     0.062 N 
ATOM     26  O   UNL     1      29.358   9.232   6.665  1.00  0.00    -0.258 OA
ATOM     27  O   UNL     1      31.246  10.340   6.587  1.00  0.00    -0.258 OA
ENDBRANCH   3  25
TORSDOF 4
ENDMDL
MODEL 16
REMARK VINA RESULT:    -7.769      4.617      8.729
REMARK INTER + INTRA:         -10.613
REMARK INTER:                  -9.370
REMARK INTRA:                  -1.243
REMARK UNBOUND:                -1.027
REMARK SMILES CC(=O)N[C@H](c1cccc([N+](=O)[O-])c1)c1c([O-])c2ccccc2oc1=O
REMARK SMILES IDX 6 1 14 2 10 3 9 4 8 5 7 6 5 7 4 8 2 9 3 10 1 11 15 13 16 14
REMARK SMILES IDX 25 15 18 16 24 17 26 18 19 19 23 20 20 21 22 22 21 23 17 24
REMARK SMILES IDX 11 25 12 26 13 27
REMARK H PARENT 4 12
ROOT
ATOM      1  C   UNL     1      29.974  12.111  11.378  1.00  0.00    -0.014 A 
ATOM      2  C   UNL     1      29.020  12.986  11.924  1.00  0.00     0.091 A 
ATOM      3  C   UNL     1      28.856  14.267  11.381  1.00  0.00     0.269 A 
ATOM      4  C   UNL     1      29.632  14.689  10.293  1.00  0.00     0.085 A 
ATOM      5  C   UNL     1      30.576  13.822   9.745  1.00  0.00     0.007 A 
ATOM      6  C   UNL     1      30.742  12.544  10.281  1.00  0.00     0.007 A 
ENDROOT
BRANCH   1   7
ATOM      7  C   UNL     1      30.153  10.707  11.959  1.00  0.00     0.150 C 
BRANCH   7   8
ATOM      8  N   UNL     1      30.183  10.782  13.409  1.00  0.00    -0.345 N 
ATOM      9  C   UNL     1      30.847   9.923  14.228  1.00  0.00     0.217 C 
ATOM     10  O   UNL     1      31.506   8.959  13.846  1.00  0.00    -0.275 OA
ATOM     11  C   UNL     1      30.672  10.238  15.689  1.00  0.00     0.114 C 
ATOM     12  H   UNL     1      29.607  11.548  13.779  1.00  0.00     0.164 HD
ENDBRANCH   7   8
BRANCH   7  13
ATOM     13  C   UNL     1      29.068   9.728  11.479  1.00  0.00     0.057 A 
ATOM     14  C   UNL     1      27.847   9.549  12.068  1.00  0.00    -0.085 A 
ATOM     15  C   UNL     1      29.533   8.979  10.278  1.00  0.00     0.341 A 
ATOM     16  C   UNL     1      26.981   8.527  11.389  1.00  0.00     0.010 A 
ATOM     17  O   UNL     1      28.669   8.070   9.699  1.00  0.00    -0.423 OA
ATOM     18  O   UNL     1      30.651   9.141   9.789  1.00  0.00    -0.246 OA
ATOM     19  C   UNL     1      25.693   8.212  11.862  1.00  0.00     0.011 A 
ATOM     20  C   UNL     1      27.410   7.846  10.257  1.00  0.00     0.137 A 
ATOM     21  C   UNL     1      24.884   7.261  11.226  1.00  0.00     0.001 A 
ATOM     22  C   UNL     1      26.617   6.893   9.605  1.00  0.00     0.048 A 
ATOM     23  C   UNL     1      25.347   6.600  10.093  1.00  0.00     0.004 A 
ATOM     24  O   UNL     1      27.407  10.159  13.093  1.00  0.00    -0.872 OA
ENDBRANCH   7  13
ENDBRANCH   1   7
BRANCH   3  25
ATOM     25  N   UNL     1      27.861  15.181  11.953  1.00  0.00     0.062 N 
ATOM     26  O   UNL     1      26.919  15.536  11.225  1.00  0.00    -0.258 OA
ATOM     27  O   UNL     1      28.009  15.554  13.126  1.00  0.00    -0.258 OA
ENDBRANCH   3  25
TORSDOF 4
ENDMDL
MODEL 17
REMARK VINA RESULT:    -7.756      2.335      4.550
REMARK INTER + INTRA:         -10.597
REMARK INTER:                 -10.174
REMARK INTRA:                  -0.424
REMARK UNBOUND:                -1.027
REMARK SMILES CC(=O)N[C@H](c1cccc([N+](=O)[O-])c1)c1c([O-])c2ccccc2oc1=O
REMARK SMILES IDX 6 1 14 2 10 3 9 4 8 5 7 6 5 7 4 8 2 9 3 10 1 11 15 13 16 14
REMARK SMILES IDX 25 15 18 16 24 17 26 18 19 19 23 20 20 21 22 22 21 23 17 24
REMARK SMILES IDX 11 25 12 26 13 27
REMARK H PARENT 4 12
ROOT
ATOM      1  C   UNL     1      32.056  13.582  11.424  1.00  0.00    -0.014 A 
ATOM      2  C   UNL     1      32.889  13.352  12.531  1.00  0.00     0.091 A 
ATOM      3  C   UNL     1      32.423  13.621  13.824  1.00  0.00     0.269 A 
ATOM      4  C   UNL     1      31.128  14.119  14.030  1.00  0.00     0.085 A 
ATOM      5  C   UNL     1      30.297  14.345  12.934  1.00  0.00     0.007 A 
ATOM      6  C   UNL     1      30.756  14.076  11.644  1.00  0.00     0.007 A 
ENDROOT
BRANCH   1   7
ATOM      7  C   UNL     1      32.554  13.282  10.009  1.00  0.00     0.150 C 
BRANCH   7   8
ATOM      8  N   UNL     1      31.455  13.412   9.069  1.00  0.00    -0.345 N 
ATOM      9  C   UNL     1      31.016  12.435   8.230  1.00  0.00     0.217 C 
ATOM     10  O   UNL     1      31.500  11.308   8.154  1.00  0.00    -0.275 OA
ATOM     11  C   UNL     1      29.875  12.872   7.353  1.00  0.00     0.114 C 
ATOM     12  H   UNL     1      31.045  14.355   9.065  1.00  0.00     0.164 HD
ENDBRANCH   7   8
BRANCH   7  13
ATOM     13  C   UNL     1      33.738  14.175   9.600  1.00  0.00     0.057 A 
ATOM     14  C   UNL     1      35.057  13.894   9.826  1.00  0.00    -0.085 A 
ATOM     15  C   UNL     1      33.253  15.414   8.929  1.00  0.00     0.341 A 
ATOM     16  C   UNL     1      36.005  14.942   9.320  1.00  0.00     0.010 A 
ATOM     17  O   UNL     1      34.189  16.321   8.473  1.00  0.00    -0.423 OA
ATOM     18  O   UNL     1      32.056  15.653   8.768  1.00  0.00    -0.246 OA
ATOM     19  C   UNL     1      37.399  14.819   9.469  1.00  0.00     0.011 A 
ATOM     20  C   UNL     1      35.549  16.086   8.675  1.00  0.00     0.137 A 
ATOM     21  C   UNL     1      38.284  15.796   8.994  1.00  0.00     0.001 A 
ATOM     22  C   UNL     1      36.416  17.074   8.191  1.00  0.00     0.048 A 
ATOM     23  C   UNL     1      37.790  16.926   8.351  1.00  0.00     0.004 A 
ATOM     24  O   UNL     1      35.520  12.856  10.397  1.00  0.00    -0.872 OA
ENDBRANCH   7  13
ENDBRANCH   1   7
BRANCH   3  25
ATOM     25  N   UNL     1      33.294  13.381  14.980  1.00  0.00     0.062 N 
ATOM     26  O   UNL     1      32.801  12.803  15.963  1.00  0.00    -0.258 OA
ATOM     27  O   UNL     1      34.470  13.765  14.920  1.00  0.00    -0.258 OA
ENDBRANCH   3  25
TORSDOF 4
ENDMDL
MODEL 18
REMARK VINA RESULT:    -7.744      2.644      5.259
REMARK INTER + INTRA:         -10.582
REMARK INTER:                  -9.497
REMARK INTRA:                  -1.085
REMARK UNBOUND:                -1.027
REMARK SMILES CC(=O)N[C@H](c1cccc([N+](=O)[O-])c1)c1c([O-])c2ccccc2oc1=O
REMARK SMILES IDX 6 1 14 2 10 3 9 4 8 5 7 6 5 7 4 8 2 9 3 10 1 11 15 13 16 14
REMARK SMILES IDX 25 15 18 16 24 17 26 18 19 19 23 20 20 21 22 22 21 23 17 24
REMARK SMILES IDX 11 25 12 26 13 27
REMARK H PARENT 4 12
ROOT
ATOM      1  C   UNL     1      31.268  13.522  12.205  1.00  0.00    -0.014 A 
ATOM      2  C   UNL     1      31.491  13.599  13.589  1.00  0.00     0.091 A 
ATOM      3  C   UNL     1      30.607  14.323  14.400  1.00  0.00     0.269 A 
ATOM      4  C   UNL     1      29.496  14.974  13.846  1.00  0.00     0.085 A 
ATOM      5  C   UNL     1      29.269  14.897  12.473  1.00  0.00     0.007 A 
ATOM      6  C   UNL     1      30.145  14.175  11.661  1.00  0.00     0.007 A 
ENDROOT
BRANCH   1   7
ATOM      7  C   UNL     1      32.223  12.726  11.313  1.00  0.00     0.150 C 
BRANCH   7   8
ATOM      8  N   UNL     1      31.471  12.073  10.257  1.00  0.00    -0.345 N 
ATOM      9  C   UNL     1      30.680  10.978  10.414  1.00  0.00     0.217 C 
ATOM     10  O   UNL     1      30.503  10.389  11.477  1.00  0.00    -0.275 OA
ATOM     11  C   UNL     1      30.048  10.510   9.131  1.00  0.00     0.114 C 
ATOM     12  H   UNL     1      31.623  12.505   9.336  1.00  0.00     0.164 HD
ENDBRANCH   7   8
BRANCH   7  13
ATOM     13  C   UNL     1      33.350  13.598  10.732  1.00  0.00     0.057 A 
ATOM     14  C   UNL     1      33.258  14.359   9.600  1.00  0.00    -0.085 A 
ATOM     15  C   UNL     1      34.578  13.491  11.568  1.00  0.00     0.341 A 
ATOM     16  C   UNL     1      34.512  15.112   9.262  1.00  0.00     0.010 A 
ATOM     17  O   UNL     1      35.685  14.231  11.202  1.00  0.00    -0.423 OA
ATOM     18  O   UNL     1      34.640  12.772  12.565  1.00  0.00    -0.246 OA
ATOM     19  C   UNL     1      34.598  15.943   8.129  1.00  0.00     0.011 A 
ATOM     20  C   UNL     1      35.649  15.027  10.056  1.00  0.00     0.137 A 
ATOM     21  C   UNL     1      35.768  16.648   7.816  1.00  0.00     0.001 A 
ATOM     22  C   UNL     1      36.827  15.724   9.762  1.00  0.00     0.048 A 
ATOM     23  C   UNL     1      36.885  16.539   8.636  1.00  0.00     0.004 A 
ATOM     24  O   UNL     1      32.236  14.479   8.853  1.00  0.00    -0.872 OA
ENDBRANCH   7  13
ENDBRANCH   1   7
BRANCH   3  25
ATOM     25  N   UNL     1      30.840  14.403  15.846  1.00  0.00     0.062 N 
ATOM     26  O   UNL     1      29.888  14.746  16.567  1.00  0.00    -0.258 OA
ATOM     27  O   UNL     1      31.970  14.128  16.276  1.00  0.00    -0.258 OA
ENDBRANCH   3  25
TORSDOF 4
ENDMDL
MODEL 19
REMARK VINA RESULT:    -7.700      3.643      7.661
REMARK INTER + INTRA:         -10.528
REMARK INTER:                  -9.213
REMARK INTRA:                  -1.316
REMARK UNBOUND:                -1.027
REMARK SMILES CC(=O)N[C@H](c1cccc([N+](=O)[O-])c1)c1c([O-])c2ccccc2oc1=O
REMARK SMILES IDX 6 1 14 2 10 3 9 4 8 5 7 6 5 7 4 8 2 9 3 10 1 11 15 13 16 14
REMARK SMILES IDX 25 15 18 16 24 17 26 18 19 19 23 20 20 21 22 22 21 23 17 24
REMARK SMILES IDX 11 25 12 26 13 27
REMARK H PARENT 4 12
ROOT
ATOM      1  C   UNL     1      31.546  13.019  12.065  1.00  0.00    -0.014 A 
ATOM      2  C   UNL     1      32.766  13.252  11.409  1.00  0.00     0.091 A 
ATOM      3  C   UNL     1      33.973  13.086  12.101  1.00  0.00     0.269 A 
ATOM      4  C   UNL     1      33.981  12.686  13.445  1.00  0.00     0.085 A 
ATOM      5  C   UNL     1      32.771  12.450  14.097  1.00  0.00     0.007 A 
ATOM      6  C   UNL     1      31.567  12.611  13.412  1.00  0.00     0.007 A 
ENDROOT
BRANCH   1   7
ATOM      7  C   UNL     1      30.224  13.189  11.314  1.00  0.00     0.150 C 
BRANCH   7   8
ATOM      8  N   UNL     1      30.487  13.674   9.971  1.00  0.00    -0.345 N 
ATOM      9  C   UNL     1      29.630  14.418   9.220  1.00  0.00     0.217 C 
ATOM     10  O   UNL     1      28.510  14.772   9.581  1.00  0.00    -0.275 OA
ATOM     11  C   UNL     1      30.169  14.751   7.856  1.00  0.00     0.114 C 
ATOM     12  H   UNL     1      31.397  13.364   9.608  1.00  0.00     0.164 HD
ENDBRANCH   7   8
BRANCH   7  13
ATOM     13  C   UNL     1      29.395  11.893  11.281  1.00  0.00     0.057 A 
ATOM     14  C   UNL     1      29.626  10.827  10.456  1.00  0.00    -0.085 A 
ATOM     15  C   UNL     1      28.282  11.958  12.268  1.00  0.00     0.341 A 
ATOM     16  C   UNL     1      28.661   9.691  10.636  1.00  0.00     0.010 A 
ATOM     17  O   UNL     1      27.449  10.864  12.388  1.00  0.00    -0.423 OA
ATOM     18  O   UNL     1      28.081  12.946  12.975  1.00  0.00    -0.246 OA
ATOM     19  C   UNL     1      28.747   8.513   9.869  1.00  0.00     0.011 A 
ATOM     20  C   UNL     1      27.637   9.746  11.573  1.00  0.00     0.137 A 
ATOM     21  C   UNL     1      27.849   7.452  10.039  1.00  0.00     0.001 A 
ATOM     22  C   UNL     1      26.729   8.696  11.760  1.00  0.00     0.048 A 
ATOM     23  C   UNL     1      26.837   7.544  10.989  1.00  0.00     0.004 A 
ATOM     24  O   UNL     1      30.557  10.726   9.597  1.00  0.00    -0.872 OA
ENDBRANCH   7  13
ENDBRANCH   1   7
BRANCH   3  25
ATOM     25  N   UNL     1      35.247  13.331  11.416  1.00  0.00     0.062 N 
ATOM     26  O   UNL     1      36.060  12.392  11.356  1.00  0.00    -0.258 OA
ATOM     27  O   UNL     1      35.451  14.455  10.936  1.00  0.00    -0.258 OA
ENDBRANCH   3  25
TORSDOF 4
ENDMDL
MODEL 20
REMARK VINA RESULT:    -7.553      2.741      5.372
REMARK INTER + INTRA:         -10.347
REMARK INTER:                  -9.151
REMARK INTRA:                  -1.196
REMARK UNBOUND:                -1.027
REMARK SMILES CC(=O)N[C@H](c1cccc([N+](=O)[O-])c1)c1c([O-])c2ccccc2oc1=O
REMARK SMILES IDX 6 1 14 2 10 3 9 4 8 5 7 6 5 7 4 8 2 9 3 10 1 11 15 13 16 14
REMARK SMILES IDX 25 15 18 16 24 17 26 18 19 19 23 20 20 21 22 22 21 23 17 24
REMARK SMILES IDX 11 25 12 26 13 27
REMARK H PARENT 4 12
ROOT
ATOM      1  C   UNL     1      31.146  13.566  12.857  1.00  0.00    -0.014 A 
ATOM      2  C   UNL     1      29.852  13.991  12.512  1.00  0.00     0.091 A 
ATOM      3  C   UNL     1      29.134  14.819  13.386  1.00  0.00     0.269 A 
ATOM      4  C   UNL     1      29.692  15.231  14.604  1.00  0.00     0.085 A 
ATOM      5  C   UNL     1      30.977  14.813  14.947  1.00  0.00     0.007 A 
ATOM      6  C   UNL     1      31.697  13.992  14.080  1.00  0.00     0.007 A 
ENDROOT
BRANCH   1   7
ATOM      7  C   UNL     1      31.941  12.670  11.905  1.00  0.00     0.150 C 
BRANCH   7   8
ATOM      8  N   UNL     1      31.024  11.908  11.076  1.00  0.00    -0.345 N 
ATOM      9  C   UNL     1      30.468  10.712  11.409  1.00  0.00     0.217 C 
ATOM     10  O   UNL     1      30.676  10.112  12.461  1.00  0.00    -0.275 OA
ATOM     11  C   UNL     1      29.577  10.150  10.335  1.00  0.00     0.114 C 
ATOM     12  H   UNL     1      30.854  12.350  10.163  1.00  0.00     0.164 HD
ENDBRANCH   7   8
BRANCH   7  13
ATOM     13  C   UNL     1      32.936  13.465  11.042  1.00  0.00     0.057 A 
ATOM     14  C   UNL     1      32.619  14.171   9.915  1.00  0.00    -0.085 A 
ATOM     15  C   UNL     1      34.315  13.351  11.594  1.00  0.00     0.341 A 
ATOM     16  C   UNL     1      33.789  14.854   9.269  1.00  0.00     0.010 A 
ATOM     17  O   UNL     1      35.335  14.026  10.954  1.00  0.00    -0.423 OA
ATOM     18  O   UNL     1      34.574  12.680  12.594  1.00  0.00    -0.246 OA
ATOM     19  C   UNL     1      33.647  15.623   8.098  1.00  0.00     0.011 A 
ATOM     20  C   UNL     1      35.070  14.763   9.799  1.00  0.00     0.137 A 
ATOM     21  C   UNL     1      34.738  16.264   7.497  1.00  0.00     0.001 A 
ATOM     22  C   UNL     1      36.174  15.397   9.215  1.00  0.00     0.048 A 
ATOM     23  C   UNL     1      36.006  16.151   8.058  1.00  0.00     0.004 A 
ATOM     24  O   UNL     1      31.461  14.294   9.403  1.00  0.00    -0.872 OA
ENDBRANCH   7  13
ENDBRANCH   1   7
BRANCH   3  25
ATOM     25  N   UNL     1      27.783  15.263  13.026  1.00  0.00     0.062 N 
ATOM     26  O   UNL     1      26.856  14.983  13.804  1.00  0.00    -0.258 OA
ATOM     27  O   UNL     1      27.633  15.890  11.967  1.00  0.00    -0.258 OA
ENDBRANCH   3  25
TORSDOF 4
ENDMDL
