MODEL 1
REMARK VINA RESULT:    -7.960      0.000      0.000
REMARK INTER + INTRA:         -11.109
REMARK INTER:                  -9.822
REMARK INTRA:                  -1.287
REMARK UNBOUND:                -1.287
REMARK SMILES CC(=O)N[C@@H](c1cccc([N+](=O)[O-])c1)c1c([O-])c2ccccc2oc1=O
REMARK SMILES IDX 6 1 14 2 10 3 9 4 8 5 7 6 5 7 4 8 2 9 3 10 1 11 15 13 16 14
REMARK SMILES IDX 25 15 18 16 24 17 26 18 19 19 23 20 20 21 22 22 21 23 17 24
REMARK SMILES IDX 11 25 12 26 13 27
REMARK H PARENT 4 12
ROOT
ATOM      1  C   UNL     1      30.906  10.364  13.986  1.00  0.00    -0.014 A 
ATOM      2  C   UNL     1      31.407   9.054  14.036  1.00  0.00     0.091 A 
ATOM      3  C   UNL     1      32.665   8.810  14.602  1.00  0.00     0.269 A 
ATOM      4  C   UNL     1      33.435   9.860  15.120  1.00  0.00     0.085 A 
ATOM      5  C   UNL     1      32.942  11.163  15.068  1.00  0.00     0.007 A 
ATOM      6  C   UNL     1      31.691  11.412  14.502  1.00  0.00     0.007 A 
ENDROOT
BRANCH   1   7
ATOM      7  C   UNL     1      29.537  10.642  13.360  1.00  0.00     0.150 C 
BRANCH   7   8
ATOM      8  N   UNL     1      28.686   9.477  13.515  1.00  0.00    -0.345 N 
ATOM      9  C   UNL     1      27.339   9.505  13.711  1.00  0.00     0.217 C 
ATOM     10  O   UNL     1      26.663  10.528  13.778  1.00  0.00    -0.275 OA
ATOM     11  C   UNL     1      26.725   8.135  13.810  1.00  0.00     0.114 C 
ATOM     12  H   UNL     1      29.203   8.594  13.421  1.00  0.00     0.164 HD
ENDBRANCH   7   8
BRANCH   7  13
ATOM     13  C   UNL     1      29.640  11.059  11.882  1.00  0.00     0.057 A 
ATOM     14  C   UNL     1      29.954  10.226  10.845  1.00  0.00    -0.085 A 
ATOM     15  C   UNL     1      29.333  12.509  11.725  1.00  0.00     0.341 A 
ATOM     16  C   UNL     1      29.985  10.899   9.504  1.00  0.00     0.010 A 
ATOM     17  O   UNL     1      29.403  13.057  10.460  1.00  0.00    -0.423 OA
ATOM     18  O   UNL     1      29.023  13.227  12.674  1.00  0.00    -0.246 OA
ATOM     19  C   UNL     1      30.288  10.193   8.323  1.00  0.00     0.011 A 
ATOM     20  C   UNL     1      29.719  12.256   9.363  1.00  0.00     0.137 A 
ATOM     21  C   UNL     1      30.321  10.822   7.073  1.00  0.00     0.001 A 
ATOM     22  C   UNL     1      29.748  12.904   8.122  1.00  0.00     0.048 A 
ATOM     23  C   UNL     1      30.050  12.182   6.972  1.00  0.00     0.004 A 
ATOM     24  O   UNL     1      30.219   8.985  10.928  1.00  0.00    -0.872 OA
ENDBRANCH   7  13
ENDBRANCH   1   7
BRANCH   3  25
ATOM     25  N   UNL     1      33.189   7.440  14.655  1.00  0.00     0.062 N 
ATOM     26  O   UNL     1      33.031   6.721  13.654  1.00  0.00    -0.258 OA
ATOM     27  O   UNL     1      33.763   7.069  15.689  1.00  0.00    -0.258 OA
ENDBRANCH   3  25
TORSDOF 4
ENDMDL
MODEL 2
REMARK VINA RESULT:    -7.937      4.232      6.673
REMARK INTER + INTRA:         -11.081
REMARK INTER:                  -9.704
REMARK INTRA:                  -1.377
REMARK UNBOUND:                -1.287
REMARK SMILES CC(=O)N[C@@H](c1cccc([N+](=O)[O-])c1)c1c([O-])c2ccccc2oc1=O
REMARK SMILES IDX 6 1 14 2 10 3 9 4 8 5 7 6 5 7 4 8 2 9 3 10 1 11 15 13 16 14
REMARK SMILES IDX 25 15 18 16 24 17 26 18 19 19 23 20 20 21 22 22 21 23 17 24
REMARK SMILES IDX 11 25 12 26 13 27
REMARK H PARENT 4 12
ROOT
ATOM      1  C   UNL     1      29.118  13.170  10.432  1.00  0.00    -0.014 A 
ATOM      2  C   UNL     1      28.630  14.320  11.074  1.00  0.00     0.091 A 
ATOM      3  C   UNL     1      28.151  14.236  12.387  1.00  0.00     0.269 A 
ATOM      4  C   UNL     1      28.150  13.014  13.074  1.00  0.00     0.085 A 
ATOM      5  C   UNL     1      28.629  11.869  12.438  1.00  0.00     0.007 A 
ATOM      6  C   UNL     1      29.104  11.947  11.128  1.00  0.00     0.007 A 
ENDROOT
BRANCH   1   7
ATOM      7  C   UNL     1      29.633  13.250   8.993  1.00  0.00     0.150 C 
BRANCH   7   8
ATOM      8  N   UNL     1      29.927  11.915   8.507  1.00  0.00    -0.345 N 
ATOM      9  C   UNL     1      29.971  11.544   7.198  1.00  0.00     0.217 C 
ATOM     10  O   UNL     1      29.769  12.298   6.251  1.00  0.00    -0.275 OA
ATOM     11  C   UNL     1      30.328  10.095   7.003  1.00  0.00     0.114 C 
ATOM     12  H   UNL     1      30.147  11.257   9.266  1.00  0.00     0.164 HD
ENDBRANCH   7   8
BRANCH   7  13
ATOM     13  C   UNL     1      30.859  14.170   8.858  1.00  0.00     0.057 A 
ATOM     14  C   UNL     1      32.118  13.883   9.309  1.00  0.00    -0.085 A 
ATOM     15  C   UNL     1      30.494  15.428   8.147  1.00  0.00     0.341 A 
ATOM     16  C   UNL     1      33.126  14.962   9.044  1.00  0.00     0.010 A 
ATOM     17  O   UNL     1      31.475  16.381   7.960  1.00  0.00    -0.423 OA
ATOM     18  O   UNL     1      29.359  15.644   7.726  1.00  0.00    -0.246 OA
ATOM     19  C   UNL     1      34.473  14.836   9.437  1.00  0.00     0.011 A 
ATOM     20  C   UNL     1      32.778  16.144   8.400  1.00  0.00     0.137 A 
ATOM     21  C   UNL     1      35.413  15.845   9.194  1.00  0.00     0.001 A 
ATOM     22  C   UNL     1      33.702  17.165   8.147  1.00  0.00     0.048 A 
ATOM     23  C   UNL     1      35.025  17.013   8.547  1.00  0.00     0.004 A 
ATOM     24  O   UNL     1      32.479  12.825   9.915  1.00  0.00    -0.872 OA
ENDBRANCH   7  13
ENDBRANCH   1   7
BRANCH   3  25
ATOM     25  N   UNL     1      27.643  15.438  13.058  1.00  0.00     0.062 N 
ATOM     26  O   UNL     1      27.290  16.392  12.345  1.00  0.00    -0.258 OA
ATOM     27  O   UNL     1      27.588  15.443  14.296  1.00  0.00    -0.258 OA
ENDBRANCH   3  25
TORSDOF 4
ENDMDL
MODEL 3
REMARK VINA RESULT:    -7.865      1.795      2.157
REMARK INTER + INTRA:         -10.991
REMARK INTER:                  -9.636
REMARK INTRA:                  -1.355
REMARK UNBOUND:                -1.287
REMARK SMILES CC(=O)N[C@@H](c1cccc([N+](=O)[O-])c1)c1c([O-])c2ccccc2oc1=O
REMARK SMILES IDX 6 1 14 2 10 3 9 4 8 5 7 6 5 7 4 8 2 9 3 10 1 11 15 13 16 14
REMARK SMILES IDX 25 15 18 16 24 17 26 18 19 19 23 20 20 21 22 22 21 23 17 24
REMARK SMILES IDX 11 25 12 26 13 27
REMARK H PARENT 4 12
ROOT
ATOM      1  C   UNL     1      30.829  10.482  13.930  1.00  0.00    -0.014 A 
ATOM      2  C   UNL     1      31.741  11.532  14.126  1.00  0.00     0.091 A 
ATOM      3  C   UNL     1      32.981  11.275  14.725  1.00  0.00     0.269 A 
ATOM      4  C   UNL     1      33.327   9.979  15.133  1.00  0.00     0.085 A 
ATOM      5  C   UNL     1      32.422   8.936  14.944  1.00  0.00     0.007 A 
ATOM      6  C   UNL     1      31.183   9.187  14.351  1.00  0.00     0.007 A 
ENDROOT
BRANCH   1   7
ATOM      7  C   UNL     1      29.467  10.755  13.286  1.00  0.00     0.150 C 
BRANCH   7   8
ATOM      8  N   UNL     1      28.601   9.606  13.476  1.00  0.00    -0.345 N 
ATOM      9  C   UNL     1      27.258   9.657  13.689  1.00  0.00     0.217 C 
ATOM     10  O   UNL     1      26.599  10.691  13.745  1.00  0.00    -0.275 OA
ATOM     11  C   UNL     1      26.625   8.299  13.823  1.00  0.00     0.114 C 
ATOM     12  H   UNL     1      29.104   8.713  13.392  1.00  0.00     0.164 HD
ENDBRANCH   7   8
BRANCH   7  13
ATOM     13  C   UNL     1      29.584  11.120  11.796  1.00  0.00     0.057 A 
ATOM     14  C   UNL     1      29.995  10.274  10.804  1.00  0.00    -0.085 A 
ATOM     15  C   UNL     1      29.167  12.533  11.570  1.00  0.00     0.341 A 
ATOM     16  C   UNL     1      30.015  10.895   9.438  1.00  0.00     0.010 A 
ATOM     17  O   UNL     1      29.233  13.035  10.286  1.00  0.00    -0.423 OA
ATOM     18  O   UNL     1      28.771  13.261  12.479  1.00  0.00    -0.246 OA
ATOM     19  C   UNL     1      30.410  10.170   8.296  1.00  0.00     0.011 A 
ATOM     20  C   UNL     1      29.647  12.219   9.232  1.00  0.00     0.137 A 
ATOM     21  C   UNL     1      30.432  10.750   7.022  1.00  0.00     0.001 A 
ATOM     22  C   UNL     1      29.662  12.818   7.966  1.00  0.00     0.048 A 
ATOM     23  C   UNL     1      30.057  12.079   6.857  1.00  0.00     0.004 A 
ATOM     24  O   UNL     1      30.355   9.063  10.946  1.00  0.00    -0.872 OA
ENDBRANCH   7  13
ENDBRANCH   1   7
BRANCH   3  25
ATOM     25  N   UNL     1      33.934  12.372  14.930  1.00  0.00     0.062 N 
ATOM     26  O   UNL     1      34.128  13.153  13.984  1.00  0.00    -0.258 OA
ATOM     27  O   UNL     1      34.495  12.466  16.031  1.00  0.00    -0.258 OA
ENDBRANCH   3  25
TORSDOF 4
ENDMDL
MODEL 4
REMARK VINA RESULT:    -7.830      3.538      5.881
REMARK INTER + INTRA:         -10.948
REMARK INTER:                  -9.602
REMARK INTRA:                  -1.347
REMARK UNBOUND:                -1.287
REMARK SMILES CC(=O)N[C@@H](c1cccc([N+](=O)[O-])c1)c1c([O-])c2ccccc2oc1=O
REMARK SMILES IDX 6 1 14 2 10 3 9 4 8 5 7 6 5 7 4 8 2 9 3 10 1 11 15 13 16 14
REMARK SMILES IDX 25 15 18 16 24 17 26 18 19 19 23 20 20 21 22 22 21 23 17 24
REMARK SMILES IDX 11 25 12 26 13 27
REMARK H PARENT 4 12
ROOT
ATOM      1  C   UNL     1      29.243  13.163  10.541  1.00  0.00    -0.014 A 
ATOM      2  C   UNL     1      29.057  11.906  11.140  1.00  0.00     0.091 A 
ATOM      3  C   UNL     1      28.665  11.824  12.481  1.00  0.00     0.269 A 
ATOM      4  C   UNL     1      28.457  12.985  13.241  1.00  0.00     0.085 A 
ATOM      5  C   UNL     1      28.646  14.233  12.651  1.00  0.00     0.007 A 
ATOM      6  C   UNL     1      29.039  14.321  11.315  1.00  0.00     0.007 A 
ENDROOT
BRANCH   1   7
ATOM      7  C   UNL     1      29.682  13.262   9.078  1.00  0.00     0.150 C 
BRANCH   7   8
ATOM      8  N   UNL     1      29.956  11.934   8.561  1.00  0.00    -0.345 N 
ATOM      9  C   UNL     1      29.935  11.580   7.247  1.00  0.00     0.217 C 
ATOM     10  O   UNL     1      29.685  12.345   6.321  1.00  0.00    -0.275 OA
ATOM     11  C   UNL     1      30.287  10.135   7.016  1.00  0.00     0.114 C 
ATOM     12  H   UNL     1      30.215  11.268   9.300  1.00  0.00     0.164 HD
ENDBRANCH   7   8
BRANCH   7  13
ATOM     13  C   UNL     1      30.895  14.190   8.890  1.00  0.00     0.057 A 
ATOM     14  C   UNL     1      32.166  13.929   9.320  1.00  0.00    -0.085 A 
ATOM     15  C   UNL     1      30.501  15.424   8.151  1.00  0.00     0.341 A 
ATOM     16  C   UNL     1      33.157  15.010   9.002  1.00  0.00     0.010 A 
ATOM     17  O   UNL     1      31.468  16.380   7.915  1.00  0.00    -0.423 OA
ATOM     18  O   UNL     1      29.355  15.617   7.749  1.00  0.00    -0.246 OA
ATOM     19  C   UNL     1      34.513  14.908   9.369  1.00  0.00     0.011 A 
ATOM     20  C   UNL     1      32.783  16.168   8.332  1.00  0.00     0.137 A 
ATOM     21  C   UNL     1      35.437  15.919   9.076  1.00  0.00     0.001 A 
ATOM     22  C   UNL     1      33.690  17.191   8.030  1.00  0.00     0.048 A 
ATOM     23  C   UNL     1      35.023  17.064   8.404  1.00  0.00     0.004 A 
ATOM     24  O   UNL     1      32.551  12.892   9.948  1.00  0.00    -0.872 OA
ENDBRANCH   7  13
ENDBRANCH   1   7
BRANCH   3  25
ATOM     25  N   UNL     1      28.469  10.511  13.107  1.00  0.00     0.062 N 
ATOM     26  O   UNL     1      27.743  10.453  14.113  1.00  0.00    -0.258 OA
ATOM     27  O   UNL     1      29.032   9.529  12.602  1.00  0.00    -0.258 OA
ENDBRANCH   3  25
TORSDOF 4
ENDMDL
MODEL 5
REMARK VINA RESULT:    -7.820      3.657      5.985
REMARK INTER + INTRA:         -10.936
REMARK INTER:                  -9.870
REMARK INTRA:                  -1.066
REMARK UNBOUND:                -1.287
REMARK SMILES CC(=O)N[C@@H](c1cccc([N+](=O)[O-])c1)c1c([O-])c2ccccc2oc1=O
REMARK SMILES IDX 6 1 14 2 10 3 9 4 8 5 7 6 5 7 4 8 2 9 3 10 1 11 15 13 16 14
REMARK SMILES IDX 25 15 18 16 24 17 26 18 19 19 23 20 20 21 22 22 21 23 17 24
REMARK SMILES IDX 11 25 12 26 13 27
REMARK H PARENT 4 12
ROOT
ATOM      1  C   UNL     1      30.203  12.140   9.389  1.00  0.00    -0.014 A 
ATOM      2  C   UNL     1      30.118  10.948  10.128  1.00  0.00     0.091 A 
ATOM      3  C   UNL     1      29.976   9.724   9.462  1.00  0.00     0.269 A 
ATOM      4  C   UNL     1      29.915   9.671   8.063  1.00  0.00     0.085 A 
ATOM      5  C   UNL     1      29.994  10.852   7.327  1.00  0.00     0.007 A 
ATOM      6  C   UNL     1      30.133  12.075   7.985  1.00  0.00     0.007 A 
ENDROOT
BRANCH   1   7
ATOM      7  C   UNL     1      30.347  13.484  10.109  1.00  0.00     0.150 C 
BRANCH   7   8
ATOM      8  N   UNL     1      29.059  14.150  10.157  1.00  0.00    -0.345 N 
ATOM      9  C   UNL     1      28.115  13.971  11.121  1.00  0.00     0.217 C 
ATOM     10  O   UNL     1      28.234  13.220  12.085  1.00  0.00    -0.275 OA
ATOM     11  C   UNL     1      26.890  14.820  10.918  1.00  0.00     0.114 C 
ATOM     12  H   UNL     1      28.933  14.825   9.392  1.00  0.00     0.164 HD
ENDBRANCH   7   8
BRANCH   7  13
ATOM     13  C   UNL     1      31.412  14.385   9.460  1.00  0.00     0.057 A 
ATOM     14  C   UNL     1      31.167  15.360   8.534  1.00  0.00    -0.085 A 
ATOM     15  C   UNL     1      32.766  14.063   9.995  1.00  0.00     0.341 A 
ATOM     16  C   UNL     1      32.393  16.088   8.069  1.00  0.00     0.010 A 
ATOM     17  O   UNL     1      33.847  14.766   9.501  1.00  0.00    -0.423 OA
ATOM     18  O   UNL     1      32.952  13.201  10.852  1.00  0.00    -0.246 OA
ATOM     19  C   UNL     1      32.328  17.126   7.118  1.00  0.00     0.011 A 
ATOM     20  C   UNL     1      33.657  15.772   8.553  1.00  0.00     0.137 A 
ATOM     21  C   UNL     1      33.473  17.803   6.681  1.00  0.00     0.001 A 
ATOM     22  C   UNL     1      34.815  16.436   8.129  1.00  0.00     0.048 A 
ATOM     23  C   UNL     1      34.721  17.456   7.188  1.00  0.00     0.004 A 
ATOM     24  O   UNL     1      30.033  15.674   8.052  1.00  0.00    -0.872 OA
ENDBRANCH   7  13
ENDBRANCH   1   7
BRANCH   3  25
ATOM     25  N   UNL     1      29.888   8.479  10.234  1.00  0.00     0.062 N 
ATOM     26  O   UNL     1      30.933   8.038  10.740  1.00  0.00    -0.258 OA
ATOM     27  O   UNL     1      28.781   7.932  10.345  1.00  0.00    -0.258 OA
ENDBRANCH   3  25
TORSDOF 4
ENDMDL
MODEL 6
REMARK VINA RESULT:    -7.790      2.775      5.420
REMARK INTER + INTRA:         -10.899
REMARK INTER:                  -9.558
REMARK INTRA:                  -1.342
REMARK UNBOUND:                -1.287
REMARK SMILES CC(=O)N[C@@H](c1cccc([N+](=O)[O-])c1)c1c([O-])c2ccccc2oc1=O
REMARK SMILES IDX 6 1 14 2 10 3 9 4 8 5 7 6 5 7 4 8 2 9 3 10 1 11 15 13 16 14
REMARK SMILES IDX 25 15 18 16 24 17 26 18 19 19 23 20 20 21 22 22 21 23 17 24
REMARK SMILES IDX 11 25 12 26 13 27
REMARK H PARENT 4 12
ROOT
ATOM      1  C   UNL     1      29.625  12.193  11.817  1.00  0.00    -0.014 A 
ATOM      2  C   UNL     1      30.954  12.467  11.454  1.00  0.00     0.091 A 
ATOM      3  C   UNL     1      31.227  13.462  10.508  1.00  0.00     0.269 A 
ATOM      4  C   UNL     1      30.189  14.192   9.913  1.00  0.00     0.085 A 
ATOM      5  C   UNL     1      28.868  13.919  10.267  1.00  0.00     0.007 A 
ATOM      6  C   UNL     1      28.590  12.926  11.207  1.00  0.00     0.007 A 
ENDROOT
BRANCH   1   7
ATOM      7  C   UNL     1      29.315  11.099  12.842  1.00  0.00     0.150 C 
BRANCH   7   8
ATOM      8  N   UNL     1      30.546  10.436  13.232  1.00  0.00    -0.345 N 
ATOM      9  C   UNL     1      30.807   9.920  14.464  1.00  0.00     0.217 C 
ATOM     10  O   UNL     1      30.028   9.946  15.412  1.00  0.00    -0.275 OA
ATOM     11  C   UNL     1      32.160   9.269  14.560  1.00  0.00     0.114 C 
ATOM     12  H   UNL     1      31.213  10.351  12.455  1.00  0.00     0.164 HD
ENDBRANCH   7   8
BRANCH   7  13
ATOM     13  C   UNL     1      28.280  10.085  12.325  1.00  0.00     0.057 A 
ATOM     14  C   UNL     1      28.459   9.242  11.264  1.00  0.00    -0.085 A 
ATOM     15  C   UNL     1      27.043  10.131  13.155  1.00  0.00     0.341 A 
ATOM     16  C   UNL     1      27.282   8.356  10.978  1.00  0.00     0.010 A 
ATOM     17  O   UNL     1      25.997   9.297  12.815  1.00  0.00    -0.423 OA
ATOM     18  O   UNL     1      26.923  10.879  14.124  1.00  0.00    -0.246 OA
ATOM     19  C   UNL     1      27.292   7.424   9.922  1.00  0.00     0.011 A 
ATOM     20  C   UNL     1      26.122   8.416  11.740  1.00  0.00     0.137 A 
ATOM     21  C   UNL     1      26.192   6.600   9.652  1.00  0.00     0.001 A 
ATOM     22  C   UNL     1      25.011   7.602  11.486  1.00  0.00     0.048 A 
ATOM     23  C   UNL     1      25.048   6.690  10.438  1.00  0.00     0.004 A 
ATOM     24  O   UNL     1      29.495   9.163  10.530  1.00  0.00    -0.872 OA
ENDBRANCH   7  13
ENDBRANCH   1   7
BRANCH   3  25
ATOM     25  N   UNL     1      32.616  13.749  10.130  1.00  0.00     0.062 N 
ATOM     26  O   UNL     1      32.812  14.343   9.057  1.00  0.00    -0.258 OA
ATOM     27  O   UNL     1      33.521  13.390  10.897  1.00  0.00    -0.258 OA
ENDBRANCH   3  25
TORSDOF 4
ENDMDL
MODEL 7
REMARK VINA RESULT:    -7.785      3.918      5.952
REMARK INTER + INTRA:         -10.893
REMARK INTER:                  -9.788
REMARK INTRA:                  -1.105
REMARK UNBOUND:                -1.287
REMARK SMILES CC(=O)N[C@@H](c1cccc([N+](=O)[O-])c1)c1c([O-])c2ccccc2oc1=O
REMARK SMILES IDX 6 1 14 2 10 3 9 4 8 5 7 6 5 7 4 8 2 9 3 10 1 11 15 13 16 14
REMARK SMILES IDX 25 15 18 16 24 17 26 18 19 19 23 20 20 21 22 22 21 23 17 24
REMARK SMILES IDX 11 25 12 26 13 27
REMARK H PARENT 4 12
ROOT
ATOM      1  C   UNL     1      30.638  11.888  10.844  1.00  0.00    -0.014 A 
ATOM      2  C   UNL     1      30.852  11.602   9.486  1.00  0.00     0.091 A 
ATOM      3  C   UNL     1      30.354  10.414   8.938  1.00  0.00     0.269 A 
ATOM      4  C   UNL     1      29.642   9.500   9.729  1.00  0.00     0.085 A 
ATOM      5  C   UNL     1      29.433   9.779  11.078  1.00  0.00     0.007 A 
ATOM      6  C   UNL     1      29.930  10.960  11.631  1.00  0.00     0.007 A 
ENDROOT
BRANCH   1   7
ATOM      7  C   UNL     1      31.189  13.179  11.456  1.00  0.00     0.150 C 
BRANCH   7   8
ATOM      8  N   UNL     1      30.110  13.914  12.091  1.00  0.00    -0.345 N 
ATOM      9  C   UNL     1      30.148  14.443  13.344  1.00  0.00     0.217 C 
ATOM     10  O   UNL     1      31.108  14.369  14.106  1.00  0.00    -0.275 OA
ATOM     11  C   UNL     1      28.887  15.174  13.719  1.00  0.00     0.114 C 
ATOM     12  H   UNL     1      29.299  14.041  11.472  1.00  0.00     0.164 HD
ENDBRANCH   7   8
BRANCH   7  13
ATOM     13  C   UNL     1      31.920  14.053  10.422  1.00  0.00     0.057 A 
ATOM     14  C   UNL     1      31.323  14.943   9.573  1.00  0.00    -0.085 A 
ATOM     15  C   UNL     1      33.390  13.811  10.479  1.00  0.00     0.341 A 
ATOM     16  C   UNL     1      32.279  15.663   8.668  1.00  0.00     0.010 A 
ATOM     17  O   UNL     1      34.200  14.500   9.599  1.00  0.00    -0.423 OA
ATOM     18  O   UNL     1      33.901  13.026  11.277  1.00  0.00    -0.246 OA
ATOM     19  C   UNL     1      31.839  16.618   7.729  1.00  0.00     0.011 A 
ATOM     20  C   UNL     1      33.646  15.421   8.708  1.00  0.00     0.137 A 
ATOM     21  C   UNL     1      32.730  17.287   6.881  1.00  0.00     0.001 A 
ATOM     22  C   UNL     1      34.554  16.078   7.868  1.00  0.00     0.048 A 
ATOM     23  C   UNL     1      34.092  17.016   6.952  1.00  0.00     0.004 A 
ATOM     24  O   UNL     1      30.078  15.187   9.490  1.00  0.00    -0.872 OA
ENDBRANCH   7  13
ENDBRANCH   1   7
BRANCH   3  25
ATOM     25  N   UNL     1      30.575  10.115   7.518  1.00  0.00     0.062 N 
ATOM     26  O   UNL     1      31.705  10.334   7.051  1.00  0.00    -0.258 OA
ATOM     27  O   UNL     1      29.631   9.659   6.858  1.00  0.00    -0.258 OA
ENDBRANCH   3  25
TORSDOF 4
ENDMDL
MODEL 8
REMARK VINA RESULT:    -7.780      3.865      7.069
REMARK INTER + INTRA:         -10.886
REMARK INTER:                  -9.735
REMARK INTRA:                  -1.152
REMARK UNBOUND:                -1.287
REMARK SMILES CC(=O)N[C@@H](c1cccc([N+](=O)[O-])c1)c1c([O-])c2ccccc2oc1=O
REMARK SMILES IDX 6 1 14 2 10 3 9 4 8 5 7 6 5 7 4 8 2 9 3 10 1 11 15 13 16 14
REMARK SMILES IDX 25 15 18 16 24 17 26 18 19 19 23 20 20 21 22 22 21 23 17 24
REMARK SMILES IDX 11 25 12 26 13 27
REMARK H PARENT 4 12
ROOT
ATOM      1  C   UNL     1      32.693  12.838  12.598  1.00  0.00    -0.014 A 
ATOM      2  C   UNL     1      34.031  13.218  12.404  1.00  0.00     0.091 A 
ATOM      3  C   UNL     1      34.460  13.637  11.139  1.00  0.00     0.269 A 
ATOM      4  C   UNL     1      33.569  13.683  10.057  1.00  0.00     0.085 A 
ATOM      5  C   UNL     1      32.242  13.302  10.245  1.00  0.00     0.007 A 
ATOM      6  C   UNL     1      31.810  12.880  11.503  1.00  0.00     0.007 A 
ENDROOT
BRANCH   1   7
ATOM      7  C   UNL     1      32.217  12.367  13.975  1.00  0.00     0.150 C 
BRANCH   7   8
ATOM      8  N   UNL     1      32.548  13.368  14.972  1.00  0.00    -0.345 N 
ATOM      9  C   UNL     1      31.675  13.914  15.861  1.00  0.00     0.217 C 
ATOM     10  O   UNL     1      30.484  13.625  15.939  1.00  0.00    -0.275 OA
ATOM     11  C   UNL     1      32.316  14.909  16.790  1.00  0.00     0.114 C 
ATOM     12  H   UNL     1      33.548  13.609  14.974  1.00  0.00     0.164 HD
ENDBRANCH   7   8
BRANCH   7  13
ATOM     13  C   UNL     1      32.794  10.993  14.357  1.00  0.00     0.057 A 
ATOM     14  C   UNL     1      34.011  10.781  14.945  1.00  0.00    -0.085 A 
ATOM     15  C   UNL     1      31.832   9.907  14.014  1.00  0.00     0.341 A 
ATOM     16  C   UNL     1      34.321   9.337  15.209  1.00  0.00     0.010 A 
ATOM     17  O   UNL     1      32.202   8.602  14.270  1.00  0.00    -0.423 OA
ATOM     18  O   UNL     1      30.731  10.132  13.514  1.00  0.00    -0.246 OA
ATOM     19  C   UNL     1      35.529   8.933  15.810  1.00  0.00     0.011 A 
ATOM     20  C   UNL     1      33.432   8.325  14.868  1.00  0.00     0.137 A 
ATOM     21  C   UNL     1      35.822   7.585  16.053  1.00  0.00     0.001 A 
ATOM     22  C   UNL     1      33.705   6.971  15.101  1.00  0.00     0.048 A 
ATOM     23  C   UNL     1      34.906   6.601  15.696  1.00  0.00     0.004 A 
ATOM     24  O   UNL     1      34.861  11.672  15.260  1.00  0.00    -0.872 OA
ENDBRANCH   7  13
ENDBRANCH   1   7
BRANCH   3  25
ATOM     25  N   UNL     1      35.858  14.035  10.936  1.00  0.00     0.062 N 
ATOM     26  O   UNL     1      36.655  13.167  10.545  1.00  0.00    -0.258 OA
ATOM     27  O   UNL     1      36.173  15.213  11.161  1.00  0.00    -0.258 OA
ENDBRANCH   3  25
TORSDOF 4
ENDMDL
MODEL 9
REMARK VINA RESULT:    -7.736      4.972      7.182
REMARK INTER + INTRA:         -10.832
REMARK INTER:                 -10.573
REMARK INTRA:                  -0.259
REMARK UNBOUND:                -1.287
REMARK SMILES CC(=O)N[C@@H](c1cccc([N+](=O)[O-])c1)c1c([O-])c2ccccc2oc1=O
REMARK SMILES IDX 6 1 14 2 10 3 9 4 8 5 7 6 5 7 4 8 2 9 3 10 1 11 15 13 16 14
REMARK SMILES IDX 25 15 18 16 24 17 26 18 19 19 23 20 20 21 22 22 21 23 17 24
REMARK SMILES IDX 11 25 12 26 13 27
REMARK H PARENT 4 12
ROOT
ATOM      1  C   UNL     1      31.200  13.106   9.287  1.00  0.00    -0.014 A 
ATOM      2  C   UNL     1      31.313  11.874   8.622  1.00  0.00     0.091 A 
ATOM      3  C   UNL     1      30.496  11.600   7.518  1.00  0.00     0.269 A 
ATOM      4  C   UNL     1      29.561  12.542   7.065  1.00  0.00     0.085 A 
ATOM      5  C   UNL     1      29.444  13.764   7.726  1.00  0.00     0.007 A 
ATOM      6  C   UNL     1      30.253  14.041   8.829  1.00  0.00     0.007 A 
ENDROOT
BRANCH   1   7
ATOM      7  C   UNL     1      32.081  13.410  10.501  1.00  0.00     0.150 C 
BRANCH   7   8
ATOM      8  N   UNL     1      31.346  14.236  11.441  1.00  0.00    -0.345 N 
ATOM      9  C   UNL     1      30.766  13.796  12.591  1.00  0.00     0.217 C 
ATOM     10  O   UNL     1      30.793  12.634  12.988  1.00  0.00    -0.275 OA
ATOM     11  C   UNL     1      30.094  14.891  13.374  1.00  0.00     0.114 C 
ATOM     12  H   UNL     1      31.335  15.228  11.172  1.00  0.00     0.164 HD
ENDBRANCH   7   8
BRANCH   7  13
ATOM     13  C   UNL     1      33.414  14.071  10.109  1.00  0.00     0.057 A 
ATOM     14  C   UNL     1      33.580  14.983   9.104  1.00  0.00    -0.085 A 
ATOM     15  C   UNL     1      34.515  13.593  10.993  1.00  0.00     0.341 A 
ATOM     16  C   UNL     1      34.992  15.465   8.939  1.00  0.00     0.010 A 
ATOM     17  O   UNL     1      35.790  14.070  10.764  1.00  0.00    -0.423 OA
ATOM     18  O   UNL     1      34.329  12.795  11.910  1.00  0.00    -0.246 OA
ATOM     19  C   UNL     1      35.346  16.408   7.954  1.00  0.00     0.011 A 
ATOM     20  C   UNL     1      36.020  15.002   9.751  1.00  0.00     0.137 A 
ATOM     21  C   UNL     1      36.664  16.855   7.798  1.00  0.00     0.001 A 
ATOM     22  C   UNL     1      37.345  15.436   9.611  1.00  0.00     0.048 A 
ATOM     23  C   UNL     1      37.666  16.366   8.629  1.00  0.00     0.004 A 
ATOM     24  O   UNL     1      32.674  15.423   8.328  1.00  0.00    -0.872 OA
ENDBRANCH   7  13
ENDBRANCH   1   7
BRANCH   3  25
ATOM     25  N   UNL     1      30.615  10.313   6.823  1.00  0.00     0.062 N 
ATOM     26  O   UNL     1      29.639   9.545   6.860  1.00  0.00    -0.258 OA
ATOM     27  O   UNL     1      31.675  10.058   6.234  1.00  0.00    -0.258 OA
ENDBRANCH   3  25
TORSDOF 4
ENDMDL
MODEL 10
REMARK VINA RESULT:    -7.723      3.599      4.544
REMARK INTER + INTRA:         -10.816
REMARK INTER:                  -9.639
REMARK INTRA:                  -1.177
REMARK UNBOUND:                -1.287
REMARK SMILES CC(=O)N[C@@H](c1cccc([N+](=O)[O-])c1)c1c([O-])c2ccccc2oc1=O
REMARK SMILES IDX 6 1 14 2 10 3 9 4 8 5 7 6 5 7 4 8 2 9 3 10 1 11 15 13 16 14
REMARK SMILES IDX 25 15 18 16 24 17 26 18 19 19 23 20 20 21 22 22 21 23 17 24
REMARK SMILES IDX 11 25 12 26 13 27
REMARK H PARENT 4 12
ROOT
ATOM      1  C   UNL     1      31.206  13.349  12.703  1.00  0.00    -0.014 A 
ATOM      2  C   UNL     1      32.169  12.470  13.223  1.00  0.00     0.091 A 
ATOM      3  C   UNL     1      32.657  12.660  14.522  1.00  0.00     0.269 A 
ATOM      4  C   UNL     1      32.196  13.721  15.314  1.00  0.00     0.085 A 
ATOM      5  C   UNL     1      31.243  14.598  14.799  1.00  0.00     0.007 A 
ATOM      6  C   UNL     1      30.756  14.416  13.504  1.00  0.00     0.007 A 
ENDROOT
BRANCH   1   7
ATOM      7  C   UNL     1      30.674  13.156  11.280  1.00  0.00     0.150 C 
BRANCH   7   8
ATOM      8  N   UNL     1      30.897  11.785  10.860  1.00  0.00    -0.345 N 
ATOM      9  C   UNL     1      29.947  10.812  10.807  1.00  0.00     0.217 C 
ATOM     10  O   UNL     1      28.767  10.971  11.107  1.00  0.00    -0.275 OA
ATOM     11  C   UNL     1      30.473   9.495  10.306  1.00  0.00     0.114 C 
ATOM     12  H   UNL     1      31.865  11.617  10.555  1.00  0.00     0.164 HD
ENDBRANCH   7   8
BRANCH   7  13
ATOM     13  C   UNL     1      31.295  14.149  10.281  1.00  0.00     0.057 A 
ATOM     14  C   UNL     1      32.607  14.170   9.898  1.00  0.00    -0.085 A 
ATOM     15  C   UNL     1      30.260  15.089   9.766  1.00  0.00     0.341 A 
ATOM     16  C   UNL     1      32.941  15.248   8.909  1.00  0.00     0.010 A 
ATOM     17  O   UNL     1      30.651  16.066   8.873  1.00  0.00    -0.423 OA
ATOM     18  O   UNL     1      29.080  15.026  10.107  1.00  0.00    -0.246 OA
ATOM     19  C   UNL     1      34.244  15.416   8.402  1.00  0.00     0.011 A 
ATOM     20  C   UNL     1      31.978  16.137   8.446  1.00  0.00     0.137 A 
ATOM     21  C   UNL     1      34.557  16.424   7.482  1.00  0.00     0.001 A 
ATOM     22  C   UNL     1      32.270  17.152   7.527  1.00  0.00     0.048 A 
ATOM     23  C   UNL     1      33.565  17.295   7.044  1.00  0.00     0.004 A 
ATOM     24  O   UNL     1      33.524  13.388  10.305  1.00  0.00    -0.872 OA
ENDBRANCH   7  13
ENDBRANCH   1   7
BRANCH   3  25
ATOM     25  N   UNL     1      33.663  11.741  15.066  1.00  0.00     0.062 N 
ATOM     26  O   UNL     1      34.538  11.318  14.293  1.00  0.00    -0.258 OA
ATOM     27  O   UNL     1      33.594  11.435  16.265  1.00  0.00    -0.258 OA
ENDBRANCH   3  25
TORSDOF 4
ENDMDL
MODEL 11
REMARK VINA RESULT:    -7.668      3.967      5.864
REMARK INTER + INTRA:         -10.749
REMARK INTER:                 -10.235
REMARK INTRA:                  -0.514
REMARK UNBOUND:                -1.287
REMARK SMILES CC(=O)N[C@@H](c1cccc([N+](=O)[O-])c1)c1c([O-])c2ccccc2oc1=O
REMARK SMILES IDX 6 1 14 2 10 3 9 4 8 5 7 6 5 7 4 8 2 9 3 10 1 11 15 13 16 14
REMARK SMILES IDX 25 15 18 16 24 17 26 18 19 19 23 20 20 21 22 22 21 23 17 24
REMARK SMILES IDX 11 25 12 26 13 27
REMARK H PARENT 4 12
ROOT
ATOM      1  C   UNL     1      30.703  11.945  10.675  1.00  0.00    -0.014 A 
ATOM      2  C   UNL     1      30.920  11.631   9.324  1.00  0.00     0.091 A 
ATOM      3  C   UNL     1      30.377  10.458   8.785  1.00  0.00     0.269 A 
ATOM      4  C   UNL     1      29.617   9.588   9.579  1.00  0.00     0.085 A 
ATOM      5  C   UNL     1      29.404   9.895  10.922  1.00  0.00     0.007 A 
ATOM      6  C   UNL     1      29.946  11.061  11.465  1.00  0.00     0.007 A 
ENDROOT
BRANCH   1   7
ATOM      7  C   UNL     1      31.302  13.220  11.276  1.00  0.00     0.150 C 
BRANCH   7   8
ATOM      8  N   UNL     1      30.357  13.810  12.205  1.00  0.00    -0.345 N 
ATOM      9  C   UNL     1      30.632  14.171  13.488  1.00  0.00     0.217 C 
ATOM     10  O   UNL     1      31.728  14.046  14.029  1.00  0.00    -0.275 OA
ATOM     11  C   UNL     1      29.456  14.782  14.199  1.00  0.00     0.114 C 
ATOM     12  H   UNL     1      29.435  13.976  11.780  1.00  0.00     0.164 HD
ENDBRANCH   7   8
BRANCH   7  13
ATOM     13  C   UNL     1      31.726  14.233  10.199  1.00  0.00     0.057 A 
ATOM     14  C   UNL     1      32.990  14.372   9.696  1.00  0.00    -0.085 A 
ATOM     15  C   UNL     1      30.557  15.046   9.756  1.00  0.00     0.341 A 
ATOM     16  C   UNL     1      33.121  15.443   8.652  1.00  0.00     0.010 A 
ATOM     17  O   UNL     1      30.766  16.025   8.806  1.00  0.00    -0.423 OA
ATOM     18  O   UNL     1      29.425  14.877  10.205  1.00  0.00    -0.246 OA
ATOM     19  C   UNL     1      34.350  15.723   8.023  1.00  0.00     0.011 A 
ATOM     20  C   UNL     1      32.035  16.214   8.257  1.00  0.00     0.137 A 
ATOM     21  C   UNL     1      34.474  16.724   7.053  1.00  0.00     0.001 A 
ATOM     22  C   UNL     1      32.137  17.220   7.289  1.00  0.00     0.048 A 
ATOM     23  C   UNL     1      33.363  17.475   6.685  1.00  0.00     0.004 A 
ATOM     24  O   UNL     1      34.015  13.702  10.037  1.00  0.00    -0.872 OA
ENDBRANCH   7  13
ENDBRANCH   1   7
BRANCH   3  25
ATOM     25  N   UNL     1      30.603  10.129   7.373  1.00  0.00     0.062 N 
ATOM     26  O   UNL     1      29.648   9.669   6.727  1.00  0.00    -0.258 OA
ATOM     27  O   UNL     1      31.729  10.329   6.895  1.00  0.00    -0.258 OA
ENDBRANCH   3  25
TORSDOF 4
ENDMDL
MODEL 12
REMARK VINA RESULT:    -7.652      4.726      7.803
REMARK INTER + INTRA:         -10.729
REMARK INTER:                  -9.506
REMARK INTRA:                  -1.224
REMARK UNBOUND:                -1.287
REMARK SMILES CC(=O)N[C@@H](c1cccc([N+](=O)[O-])c1)c1c([O-])c2ccccc2oc1=O
REMARK SMILES IDX 6 1 14 2 10 3 9 4 8 5 7 6 5 7 4 8 2 9 3 10 1 11 15 13 16 14
REMARK SMILES IDX 25 15 18 16 24 17 26 18 19 19 23 20 20 21 22 22 21 23 17 24
REMARK SMILES IDX 11 25 12 26 13 27
REMARK H PARENT 4 12
ROOT
ATOM      1  C   UNL     1      32.346  15.153   8.681  1.00  0.00    -0.014 A 
ATOM      2  C   UNL     1      33.725  15.374   8.829  1.00  0.00     0.091 A 
ATOM      3  C   UNL     1      34.296  16.558   8.347  1.00  0.00     0.269 A 
ATOM      4  C   UNL     1      33.508  17.531   7.715  1.00  0.00     0.085 A 
ATOM      5  C   UNL     1      32.140  17.312   7.562  1.00  0.00     0.007 A 
ATOM      6  C   UNL     1      31.566  16.132   8.038  1.00  0.00     0.007 A 
ENDROOT
BRANCH   1   7
ATOM      7  C   UNL     1      31.714  13.856   9.194  1.00  0.00     0.150 C 
BRANCH   7   8
ATOM      8  N   UNL     1      30.722  13.389   8.243  1.00  0.00    -0.345 N 
ATOM      9  C   UNL     1      30.674  12.142   7.702  1.00  0.00     0.217 C 
ATOM     10  O   UNL     1      31.469  11.240   7.953  1.00  0.00    -0.275 OA
ATOM     11  C   UNL     1      29.513  11.944   6.766  1.00  0.00     0.114 C 
ATOM     12  H   UNL     1      30.007  14.098   8.036  1.00  0.00     0.164 HD
ENDBRANCH   7   8
BRANCH   7  13
ATOM     13  C   UNL     1      31.103  14.016  10.597  1.00  0.00     0.057 A 
ATOM     14  C   UNL     1      29.861  14.520  10.868  1.00  0.00    -0.085 A 
ATOM     15  C   UNL     1      32.051  13.527  11.639  1.00  0.00     0.341 A 
ATOM     16  C   UNL     1      29.520  14.562  12.328  1.00  0.00     0.010 A 
ATOM     17  O   UNL     1      31.669  13.618  12.962  1.00  0.00    -0.423 OA
ATOM     18  O   UNL     1      33.150  13.049  11.362  1.00  0.00    -0.246 OA
ATOM     19  C   UNL     1      28.281  15.049  12.790  1.00  0.00     0.011 A 
ATOM     20  C   UNL     1      30.414  14.125  13.299  1.00  0.00     0.137 A 
ATOM     21  C   UNL     1      27.965  15.092  14.153  1.00  0.00     0.001 A 
ATOM     22  C   UNL     1      30.117  14.161  14.667  1.00  0.00     0.048 A 
ATOM     23  C   UNL     1      28.887  14.646  15.095  1.00  0.00     0.004 A 
ATOM     24  O   UNL     1      29.018  14.944  10.016  1.00  0.00    -0.872 OA
ENDBRANCH   7  13
ENDBRANCH   1   7
BRANCH   3  25
ATOM     25  N   UNL     1      35.737  16.790   8.502  1.00  0.00     0.062 N 
ATOM     26  O   UNL     1      36.134  17.256   9.583  1.00  0.00    -0.258 OA
ATOM     27  O   UNL     1      36.484  16.509   7.554  1.00  0.00    -0.258 OA
ENDBRANCH   3  25
TORSDOF 4
ENDMDL
MODEL 13
REMARK VINA RESULT:    -7.649      5.116      6.342
REMARK INTER + INTRA:         -10.725
REMARK INTER:                 -10.229
REMARK INTRA:                  -0.496
REMARK UNBOUND:                -1.287
REMARK SMILES CC(=O)N[C@@H](c1cccc([N+](=O)[O-])c1)c1c([O-])c2ccccc2oc1=O
REMARK SMILES IDX 6 1 14 2 10 3 9 4 8 5 7 6 5 7 4 8 2 9 3 10 1 11 15 13 16 14
REMARK SMILES IDX 25 15 18 16 24 17 26 18 19 19 23 20 20 21 22 22 21 23 17 24
REMARK SMILES IDX 11 25 12 26 13 27
REMARK H PARENT 4 12
ROOT
ATOM      1  C   UNL     1      31.620  13.774  11.027  1.00  0.00    -0.014 A 
ATOM      2  C   UNL     1      32.421  12.982  11.865  1.00  0.00     0.091 A 
ATOM      3  C   UNL     1      32.131  12.898  13.232  1.00  0.00     0.269 A 
ATOM      4  C   UNL     1      31.046  13.599  13.780  1.00  0.00     0.085 A 
ATOM      5  C   UNL     1      30.252  14.389  12.951  1.00  0.00     0.007 A 
ATOM      6  C   UNL     1      30.539  14.478  11.588  1.00  0.00     0.007 A 
ENDROOT
BRANCH   1   7
ATOM      7  C   UNL     1      31.937  13.879   9.533  1.00  0.00     0.150 C 
BRANCH   7   8
ATOM      8  N   UNL     1      31.952  12.553   8.944  1.00  0.00    -0.345 N 
ATOM      9  C   UNL     1      30.917  11.975   8.275  1.00  0.00     0.217 C 
ATOM     10  O   UNL     1      29.828  12.508   8.078  1.00  0.00    -0.275 OA
ATOM     11  C   UNL     1      31.239  10.601   7.755  1.00  0.00     0.114 C 
ATOM     12  H   UNL     1      32.862  12.085   9.045  1.00  0.00     0.164 HD
ENDBRANCH   7   8
BRANCH   7  13
ATOM     13  C   UNL     1      33.258  14.620   9.264  1.00  0.00     0.057 A 
ATOM     14  C   UNL     1      34.501  14.176   9.620  1.00  0.00    -0.085 A 
ATOM     15  C   UNL     1      33.004  15.897   8.537  1.00  0.00     0.341 A 
ATOM     16  C   UNL     1      35.618  15.100   9.233  1.00  0.00     0.010 A 
ATOM     17  O   UNL     1      34.084  16.701   8.234  1.00  0.00    -0.423 OA
ATOM     18  O   UNL     1      31.876  16.254   8.202  1.00  0.00    -0.246 OA
ATOM     19  C   UNL     1      36.965  14.802   9.519  1.00  0.00     0.011 A 
ATOM     20  C   UNL     1      35.377  16.300   8.575  1.00  0.00     0.137 A 
ATOM     21  C   UNL     1      38.007  15.667   9.162  1.00  0.00     0.001 A 
ATOM     22  C   UNL     1      36.404  17.179   8.209  1.00  0.00     0.048 A 
ATOM     23  C   UNL     1      37.724  16.860   8.504  1.00  0.00     0.004 A 
ATOM     24  O   UNL     1      34.768  13.096  10.235  1.00  0.00    -0.872 OA
ENDBRANCH   7  13
ENDBRANCH   1   7
BRANCH   3  25
ATOM     25  N   UNL     1      32.967  12.070  14.108  1.00  0.00     0.062 N 
ATOM     26  O   UNL     1      32.435  11.093  14.661  1.00  0.00    -0.258 OA
ATOM     27  O   UNL     1      34.159  12.382  14.251  1.00  0.00    -0.258 OA
ENDBRANCH   3  25
TORSDOF 4
ENDMDL
MODEL 14
REMARK VINA RESULT:    -7.565      4.586      6.593
REMARK INTER + INTRA:         -10.622
REMARK INTER:                  -9.387
REMARK INTRA:                  -1.235
REMARK UNBOUND:                -1.287
REMARK SMILES CC(=O)N[C@@H](c1cccc([N+](=O)[O-])c1)c1c([O-])c2ccccc2oc1=O
REMARK SMILES IDX 6 1 14 2 10 3 9 4 8 5 7 6 5 7 4 8 2 9 3 10 1 11 15 13 16 14
REMARK SMILES IDX 25 15 18 16 24 17 26 18 19 19 23 20 20 21 22 22 21 23 17 24
REMARK SMILES IDX 11 25 12 26 13 27
REMARK H PARENT 4 12
ROOT
ATOM      1  C   UNL     1      31.043  13.207  11.093  1.00  0.00    -0.014 A 
ATOM      2  C   UNL     1      30.724  14.295  11.921  1.00  0.00     0.091 A 
ATOM      3  C   UNL     1      30.461  14.083  13.280  1.00  0.00     0.269 A 
ATOM      4  C   UNL     1      30.511  12.794  13.829  1.00  0.00     0.085 A 
ATOM      5  C   UNL     1      30.822  11.711  13.008  1.00  0.00     0.007 A 
ATOM      6  C   UNL     1      31.082  11.916  11.652  1.00  0.00     0.007 A 
ENDROOT
BRANCH   1   7
ATOM      7  C   UNL     1      31.322  13.427   9.604  1.00  0.00     0.150 C 
BRANCH   7   8
ATOM      8  N   UNL     1      31.469  12.145   8.942  1.00  0.00    -0.345 N 
ATOM      9  C   UNL     1      30.815  11.761   7.812  1.00  0.00     0.217 C 
ATOM     10  O   UNL     1      30.011  12.458   7.198  1.00  0.00    -0.275 OA
ATOM     11  C   UNL     1      31.194  10.381   7.345  1.00  0.00     0.114 C 
ATOM     12  H   UNL     1      32.168  11.543   9.396  1.00  0.00     0.164 HD
ENDBRANCH   7   8
BRANCH   7  13
ATOM     13  C   UNL     1      32.552  14.320   9.362  1.00  0.00     0.057 A 
ATOM     14  C   UNL     1      33.819  14.057   9.802  1.00  0.00    -0.085 A 
ATOM     15  C   UNL     1      32.179  15.518   8.558  1.00  0.00     0.341 A 
ATOM     16  C   UNL     1      34.829  15.100   9.423  1.00  0.00     0.010 A 
ATOM     17  O   UNL     1      33.163  16.441   8.267  1.00  0.00    -0.423 OA
ATOM     18  O   UNL     1      31.035  15.712   8.149  1.00  0.00    -0.246 OA
ATOM     19  C   UNL     1      36.185  14.991   9.790  1.00  0.00     0.011 A 
ATOM     20  C   UNL     1      34.475  16.227   8.692  1.00  0.00     0.137 A 
ATOM     21  C   UNL     1      37.127  15.966   9.440  1.00  0.00     0.001 A 
ATOM     22  C   UNL     1      35.401  17.214   8.332  1.00  0.00     0.048 A 
ATOM     23  C   UNL     1      36.733  17.081   8.708  1.00  0.00     0.004 A 
ATOM     24  O   UNL     1      34.186  13.049  10.485  1.00  0.00    -0.872 OA
ENDBRANCH   7  13
ENDBRANCH   1   7
BRANCH   3  25
ATOM     25  N   UNL     1      30.129  15.220  14.146  1.00  0.00     0.062 N 
ATOM     26  O   UNL     1      31.048  15.731  14.808  1.00  0.00    -0.258 OA
ATOM     27  O   UNL     1      28.955  15.617  14.173  1.00  0.00    -0.258 OA
ENDBRANCH   3  25
TORSDOF 4
ENDMDL
MODEL 15
REMARK VINA RESULT:    -7.548      2.465      5.012
REMARK INTER + INTRA:         -10.601
REMARK INTER:                  -9.455
REMARK INTRA:                  -1.146
REMARK UNBOUND:                -1.287
REMARK SMILES CC(=O)N[C@@H](c1cccc([N+](=O)[O-])c1)c1c([O-])c2ccccc2oc1=O
REMARK SMILES IDX 6 1 14 2 10 3 9 4 8 5 7 6 5 7 4 8 2 9 3 10 1 11 15 13 16 14
REMARK SMILES IDX 25 15 18 16 24 17 26 18 19 19 23 20 20 21 22 22 21 23 17 24
REMARK SMILES IDX 11 25 12 26 13 27
REMARK H PARENT 4 12
ROOT
ATOM      1  C   UNL     1      27.687   9.506  12.894  1.00  0.00    -0.014 A 
ATOM      2  C   UNL     1      27.372   8.715  11.776  1.00  0.00     0.091 A 
ATOM      3  C   UNL     1      26.159   8.018  11.735  1.00  0.00     0.269 A 
ATOM      4  C   UNL     1      25.249   8.096  12.799  1.00  0.00     0.085 A 
ATOM      5  C   UNL     1      25.560   8.876  13.911  1.00  0.00     0.007 A 
ATOM      6  C   UNL     1      26.770   9.571  13.959  1.00  0.00     0.007 A 
ENDROOT
BRANCH   1   7
ATOM      7  C   UNL     1      29.016  10.264  12.953  1.00  0.00     0.150 C 
BRANCH   7   8
ATOM      8  N   UNL     1      29.023  11.142  14.108  1.00  0.00    -0.345 N 
ATOM      9  C   UNL     1      29.774  10.965  15.229  1.00  0.00     0.217 C 
ATOM     10  O   UNL     1      30.552  10.032  15.408  1.00  0.00    -0.275 OA
ATOM     11  C   UNL     1      29.589  12.056  16.247  1.00  0.00     0.114 C 
ATOM     12  H   UNL     1      28.418  11.964  13.984  1.00  0.00     0.164 HD
ENDBRANCH   7   8
BRANCH   7  13
ATOM     13  C   UNL     1      29.303  11.047  11.660  1.00  0.00     0.057 A 
ATOM     14  C   UNL     1      28.767  12.261  11.334  1.00  0.00    -0.085 A 
ATOM     15  C   UNL     1      30.271  10.304  10.803  1.00  0.00     0.341 A 
ATOM     16  C   UNL     1      29.221  12.797  10.008  1.00  0.00     0.010 A 
ATOM     17  O   UNL     1      30.623  10.856   9.587  1.00  0.00    -0.423 OA
ATOM     18  O   UNL     1      30.760   9.227  11.137  1.00  0.00    -0.246 OA
ATOM     19  C   UNL     1      28.772  14.037   9.513  1.00  0.00     0.011 A 
ATOM     20  C   UNL     1      30.107  12.093   9.201  1.00  0.00     0.137 A 
ATOM     21  C   UNL     1      29.193  14.536   8.274  1.00  0.00     0.001 A 
ATOM     22  C   UNL     1      30.539  12.573   7.959  1.00  0.00     0.048 A 
ATOM     23  C   UNL     1      30.080  13.800   7.494  1.00  0.00     0.004 A 
ATOM     24  O   UNL     1      27.944  12.934  12.032  1.00  0.00    -0.872 OA
ENDBRANCH   7  13
ENDBRANCH   1   7
BRANCH   3  25
ATOM     25  N   UNL     1      25.830   7.193  10.567  1.00  0.00     0.062 N 
ATOM     26  O   UNL     1      26.666   7.129   9.650  1.00  0.00    -0.258 OA
ATOM     27  O   UNL     1      24.741   6.600  10.552  1.00  0.00    -0.258 OA
ENDBRANCH   3  25
TORSDOF 4
ENDMDL
MODEL 16
REMARK VINA RESULT:    -7.546      2.734      4.928
REMARK INTER + INTRA:         -10.598
REMARK INTER:                  -9.296
REMARK INTRA:                  -1.302
REMARK UNBOUND:                -1.287
REMARK SMILES CC(=O)N[C@@H](c1cccc([N+](=O)[O-])c1)c1c([O-])c2ccccc2oc1=O
REMARK SMILES IDX 6 1 14 2 10 3 9 4 8 5 7 6 5 7 4 8 2 9 3 10 1 11 15 13 16 14
REMARK SMILES IDX 25 15 18 16 24 17 26 18 19 19 23 20 20 21 22 22 21 23 17 24
REMARK SMILES IDX 11 25 12 26 13 27
REMARK H PARENT 4 12
ROOT
ATOM      1  C   UNL     1      27.864  10.913  12.995  1.00  0.00    -0.014 A 
ATOM      2  C   UNL     1      27.433   9.582  12.867  1.00  0.00     0.091 A 
ATOM      3  C   UNL     1      26.115   9.242  13.197  1.00  0.00     0.269 A 
ATOM      4  C   UNL     1      25.215  10.215  13.654  1.00  0.00     0.085 A 
ATOM      5  C   UNL     1      25.641  11.535  13.786  1.00  0.00     0.007 A 
ATOM      6  C   UNL     1      26.955  11.879  13.463  1.00  0.00     0.007 A 
ENDROOT
BRANCH   1   7
ATOM      7  C   UNL     1      29.306  11.293  12.648  1.00  0.00     0.150 C 
BRANCH   7   8
ATOM      8  N   UNL     1      29.673  12.505  13.356  1.00  0.00    -0.345 N 
ATOM      9  C   UNL     1      30.926  12.818  13.786  1.00  0.00     0.217 C 
ATOM     10  O   UNL     1      31.917  12.111  13.626  1.00  0.00    -0.275 OA
ATOM     11  C   UNL     1      31.002  14.157  14.467  1.00  0.00     0.114 C 
ATOM     12  H   UNL     1      28.881  13.150  13.474  1.00  0.00     0.164 HD
ENDBRANCH   7   8
BRANCH   7  13
ATOM     13  C   UNL     1      29.524  11.449  11.133  1.00  0.00     0.057 A 
ATOM     14  C   UNL     1      29.208  12.558  10.398  1.00  0.00    -0.085 A 
ATOM     15  C   UNL     1      30.150  10.221  10.565  1.00  0.00     0.341 A 
ATOM     16  C   UNL     1      29.529  12.437   8.937  1.00  0.00     0.010 A 
ATOM     17  O   UNL     1      30.396  10.182   9.207  1.00  0.00    -0.423 OA
ATOM     18  O   UNL     1      30.452   9.251  11.258  1.00  0.00    -0.246 OA
ATOM     19  C   UNL     1      29.273  13.484   8.030  1.00  0.00     0.011 A 
ATOM     20  C   UNL     1      30.093  11.284   8.406  1.00  0.00     0.137 A 
ATOM     21  C   UNL     1      29.568  13.371   6.666  1.00  0.00     0.001 A 
ATOM     22  C   UNL     1      30.395  11.150   7.045  1.00  0.00     0.048 A 
ATOM     23  C   UNL     1      30.131  12.199   6.172  1.00  0.00     0.004 A 
ATOM     24  O   UNL     1      28.678  13.627  10.836  1.00  0.00    -0.872 OA
ENDBRANCH   7  13
ENDBRANCH   1   7
BRANCH   3  25
ATOM     25  N   UNL     1      25.665   7.852  13.063  1.00  0.00     0.062 N 
ATOM     26  O   UNL     1      24.742   7.618  12.265  1.00  0.00    -0.258 OA
ATOM     27  O   UNL     1      26.225   6.983  13.747  1.00  0.00    -0.258 OA
ENDBRANCH   3  25
TORSDOF 4
ENDMDL
MODEL 17
REMARK VINA RESULT:    -7.516      3.609      5.726
REMARK INTER + INTRA:         -10.562
REMARK INTER:                 -10.032
REMARK INTRA:                  -0.530
REMARK UNBOUND:                -1.287
REMARK SMILES CC(=O)N[C@@H](c1cccc([N+](=O)[O-])c1)c1c([O-])c2ccccc2oc1=O
REMARK SMILES IDX 6 1 14 2 10 3 9 4 8 5 7 6 5 7 4 8 2 9 3 10 1 11 15 13 16 14
REMARK SMILES IDX 25 15 18 16 24 17 26 18 19 19 23 20 20 21 22 22 21 23 17 24
REMARK SMILES IDX 11 25 12 26 13 27
REMARK H PARENT 4 12
ROOT
ATOM      1  C   UNL     1      30.739  11.851  10.109  1.00  0.00    -0.014 A 
ATOM      2  C   UNL     1      29.851  10.969  10.745  1.00  0.00     0.091 A 
ATOM      3  C   UNL     1      29.351   9.861  10.049  1.00  0.00     0.269 A 
ATOM      4  C   UNL     1      29.726   9.619   8.719  1.00  0.00     0.085 A 
ATOM      5  C   UNL     1      30.604  10.496   8.084  1.00  0.00     0.007 A 
ATOM      6  C   UNL     1      31.102  11.603   8.772  1.00  0.00     0.007 A 
ENDROOT
BRANCH   1   7
ATOM      7  C   UNL     1      31.282  13.071  10.858  1.00  0.00     0.150 C 
BRANCH   7   8
ATOM      8  N   UNL     1      30.284  13.548  11.797  1.00  0.00    -0.345 N 
ATOM      9  C   UNL     1      30.515  13.868  13.099  1.00  0.00     0.217 C 
ATOM     10  O   UNL     1      31.609  13.796  13.653  1.00  0.00    -0.275 OA
ATOM     11  C   UNL     1      29.289  14.360  13.817  1.00  0.00     0.114 C 
ATOM     12  H   UNL     1      29.359  13.668  11.365  1.00  0.00     0.164 HD
ENDBRANCH   7   8
BRANCH   7  13
ATOM     13  C   UNL     1      31.729  14.194   9.906  1.00  0.00     0.057 A 
ATOM     14  C   UNL     1      33.009  14.401   9.472  1.00  0.00    -0.085 A 
ATOM     15  C   UNL     1      30.564  15.030   9.500  1.00  0.00     0.341 A 
ATOM     16  C   UNL     1      33.161  15.573   8.547  1.00  0.00     0.010 A 
ATOM     17  O   UNL     1      30.791  16.102   8.661  1.00  0.00    -0.423 OA
ATOM     18  O   UNL     1      29.418  14.799   9.883  1.00  0.00    -0.246 OA
ATOM     19  C   UNL     1      34.409  15.933   8.000  1.00  0.00     0.011 A 
ATOM     20  C   UNL     1      32.077  16.364   8.186  1.00  0.00     0.137 A 
ATOM     21  C   UNL     1      34.552  17.028   7.141  1.00  0.00     0.001 A 
ATOM     22  C   UNL     1      32.199  17.464   7.329  1.00  0.00     0.048 A 
ATOM     23  C   UNL     1      33.442  17.796   6.804  1.00  0.00     0.004 A 
ATOM     24  O   UNL     1      34.032  13.715   9.786  1.00  0.00    -0.872 OA
ENDBRANCH   7  13
ENDBRANCH   1   7
BRANCH   3  25
ATOM     25  N   UNL     1      28.423   8.938  10.713  1.00  0.00     0.062 N 
ATOM     26  O   UNL     1      28.021   9.241  11.849  1.00  0.00    -0.258 OA
ATOM     27  O   UNL     1      28.085   7.909  10.111  1.00  0.00    -0.258 OA
ENDBRANCH   3  25
TORSDOF 4
ENDMDL
MODEL 18
REMARK VINA RESULT:    -7.507      4.242      6.715
REMARK INTER + INTRA:         -10.550
REMARK INTER:                  -9.442
REMARK INTRA:                  -1.108
REMARK UNBOUND:                -1.287
REMARK SMILES CC(=O)N[C@@H](c1cccc([N+](=O)[O-])c1)c1c([O-])c2ccccc2oc1=O
REMARK SMILES IDX 6 1 14 2 10 3 9 4 8 5 7 6 5 7 4 8 2 9 3 10 1 11 15 13 16 14
REMARK SMILES IDX 25 15 18 16 24 17 26 18 19 19 23 20 20 21 22 22 21 23 17 24
REMARK SMILES IDX 11 25 12 26 13 27
REMARK H PARENT 4 12
ROOT
ATOM      1  C   UNL     1      32.584  14.106   9.250  1.00  0.00    -0.014 A 
ATOM      2  C   UNL     1      33.873  14.237   9.792  1.00  0.00     0.091 A 
ATOM      3  C   UNL     1      34.676  15.325   9.429  1.00  0.00     0.269 A 
ATOM      4  C   UNL     1      34.209  16.292   8.526  1.00  0.00     0.085 A 
ATOM      5  C   UNL     1      32.932  16.163   7.982  1.00  0.00     0.007 A 
ATOM      6  C   UNL     1      32.129  15.078   8.338  1.00  0.00     0.007 A 
ENDROOT
BRANCH   1   7
ATOM      7  C   UNL     1      31.704  12.914   9.632  1.00  0.00     0.150 C 
BRANCH   7   8
ATOM      8  N   UNL     1      31.300  12.203   8.433  1.00  0.00    -0.345 N 
ATOM      9  C   UNL     1      30.852  10.919   8.391  1.00  0.00     0.217 C 
ATOM     10  O   UNL     1      30.726  10.190   9.371  1.00  0.00    -0.275 OA
ATOM     11  C   UNL     1      30.482  10.464   7.005  1.00  0.00     0.114 C 
ATOM     12  H   UNL     1      31.346  12.790   7.590  1.00  0.00     0.164 HD
ENDBRANCH   7   8
BRANCH   7  13
ATOM     13  C   UNL     1      30.480  13.331  10.467  1.00  0.00     0.057 A 
ATOM     14  C   UNL     1      29.273  13.724   9.960  1.00  0.00    -0.085 A 
ATOM     15  C   UNL     1      30.783  13.233  11.923  1.00  0.00     0.341 A 
ATOM     16  C   UNL     1      28.254  14.076  11.004  1.00  0.00     0.010 A 
ATOM     17  O   UNL     1      29.797  13.594  12.820  1.00  0.00    -0.423 OA
ATOM     18  O   UNL     1      31.869  12.846  12.349  1.00  0.00    -0.246 OA
ATOM     19  C   UNL     1      26.954  14.499  10.663  1.00  0.00     0.011 A 
ATOM     20  C   UNL     1      28.545  14.005  12.361  1.00  0.00     0.137 A 
ATOM     21  C   UNL     1      26.005  14.832  11.637  1.00  0.00     0.001 A 
ATOM     22  C   UNL     1      27.610  14.333  13.351  1.00  0.00     0.048 A 
ATOM     23  C   UNL     1      26.335  14.748  12.985  1.00  0.00     0.004 A 
ATOM     24  O   UNL     1      28.966  13.819   8.730  1.00  0.00    -0.872 OA
ENDBRANCH   7  13
ENDBRANCH   1   7
BRANCH   3  25
ATOM     25  N   UNL     1      36.022  15.462   9.996  1.00  0.00     0.062 N 
ATOM     26  O   UNL     1      36.153  15.296  11.220  1.00  0.00    -0.258 OA
ATOM     27  O   UNL     1      36.959  15.733   9.231  1.00  0.00    -0.258 OA
ENDBRANCH   3  25
TORSDOF 4
ENDMDL
MODEL 19
REMARK VINA RESULT:    -7.459      3.665      5.348
REMARK INTER + INTRA:         -10.490
REMARK INTER:                  -9.297
REMARK INTRA:                  -1.193
REMARK UNBOUND:                -1.287
REMARK SMILES CC(=O)N[C@@H](c1cccc([N+](=O)[O-])c1)c1c([O-])c2ccccc2oc1=O
REMARK SMILES IDX 6 1 14 2 10 3 9 4 8 5 7 6 5 7 4 8 2 9 3 10 1 11 15 13 16 14
REMARK SMILES IDX 25 15 18 16 24 17 26 18 19 19 23 20 20 21 22 22 21 23 17 24
REMARK SMILES IDX 11 25 12 26 13 27
REMARK H PARENT 4 12
ROOT
ATOM      1  C   UNL     1      31.095  13.068  12.474  1.00  0.00    -0.014 A 
ATOM      2  C   UNL     1      30.635  14.130  13.268  1.00  0.00     0.091 A 
ATOM      3  C   UNL     1      31.050  14.234  14.602  1.00  0.00     0.269 A 
ATOM      4  C   UNL     1      31.922  13.288  15.158  1.00  0.00     0.085 A 
ATOM      5  C   UNL     1      32.376  12.229  14.373  1.00  0.00     0.007 A 
ATOM      6  C   UNL     1      31.963  12.119  13.045  1.00  0.00     0.007 A 
ENDROOT
BRANCH   1   7
ATOM      7  C   UNL     1      30.638  12.939  11.018  1.00  0.00     0.150 C 
BRANCH   7   8
ATOM      8  N   UNL     1      30.923  11.601  10.535  1.00  0.00    -0.345 N 
ATOM      9  C   UNL     1      30.024  10.582  10.458  1.00  0.00     0.217 C 
ATOM     10  O   UNL     1      28.844  10.665  10.786  1.00  0.00    -0.275 OA
ATOM     11  C   UNL     1      30.607   9.317   9.891  1.00  0.00     0.114 C 
ATOM     12  H   UNL     1      31.891  11.497  10.206  1.00  0.00     0.164 HD
ENDBRANCH   7   8
BRANCH   7  13
ATOM     13  C   UNL     1      31.273  14.004  10.107  1.00  0.00     0.057 A 
ATOM     14  C   UNL     1      32.603  14.092   9.800  1.00  0.00    -0.085 A 
ATOM     15  C   UNL     1      30.232  14.932   9.581  1.00  0.00     0.341 A 
ATOM     16  C   UNL     1      32.948  15.230   8.886  1.00  0.00     0.010 A 
ATOM     17  O   UNL     1      30.634  15.966   8.761  1.00  0.00    -0.423 OA
ATOM     18  O   UNL     1      29.038  14.808   9.850  1.00  0.00    -0.246 OA
ATOM     19  C   UNL     1      34.270  15.472   8.463  1.00  0.00     0.011 A 
ATOM     20  C   UNL     1      31.978  16.107   8.414  1.00  0.00     0.137 A 
ATOM     21  C   UNL     1      34.593  16.537   7.614  1.00  0.00     0.001 A 
ATOM     22  C   UNL     1      32.280  17.179   7.564  1.00  0.00     0.048 A 
ATOM     23  C   UNL     1      33.594  17.393   7.163  1.00  0.00     0.004 A 
ATOM     24  O   UNL     1      33.525  13.324  10.219  1.00  0.00    -0.872 OA
ENDBRANCH   7  13
ENDBRANCH   1   7
BRANCH   3  25
ATOM     25  N   UNL     1      30.571  15.345  15.432  1.00  0.00     0.062 N 
ATOM     26  O   UNL     1      30.442  16.456  14.892  1.00  0.00    -0.258 OA
ATOM     27  O   UNL     1      30.315  15.122  16.624  1.00  0.00    -0.258 OA
ENDBRANCH   3  25
TORSDOF 4
ENDMDL
MODEL 20
REMARK VINA RESULT:    -7.431      2.781      3.242
REMARK INTER + INTRA:         -10.456
REMARK INTER:                  -9.301
REMARK INTRA:                  -1.155
REMARK UNBOUND:                -1.287
REMARK SMILES CC(=O)N[C@@H](c1cccc([N+](=O)[O-])c1)c1c([O-])c2ccccc2oc1=O
REMARK SMILES IDX 6 1 14 2 10 3 9 4 8 5 7 6 5 7 4 8 2 9 3 10 1 11 15 13 16 14
REMARK SMILES IDX 25 15 18 16 24 17 26 18 19 19 23 20 20 21 22 22 21 23 17 24
REMARK SMILES IDX 11 25 12 26 13 27
REMARK H PARENT 4 12
ROOT
ATOM      1  C   UNL     1      30.037  13.522  13.531  1.00  0.00    -0.014 A 
ATOM      2  C   UNL     1      31.340  13.043  13.317  1.00  0.00     0.091 A 
ATOM      3  C   UNL     1      32.416  13.617  14.005  1.00  0.00     0.269 A 
ATOM      4  C   UNL     1      32.211  14.670  14.909  1.00  0.00     0.085 A 
ATOM      5  C   UNL     1      30.920  15.151  15.120  1.00  0.00     0.007 A 
ATOM      6  C   UNL     1      29.844  14.584  14.434  1.00  0.00     0.007 A 
ENDROOT
BRANCH   1   7
ATOM      7  C   UNL     1      28.856  12.908  12.775  1.00  0.00     0.150 C 
BRANCH   7   8
ATOM      8  N   UNL     1      28.633  11.552  13.242  1.00  0.00    -0.345 N 
ATOM      9  C   UNL     1      27.425  10.930  13.306  1.00  0.00     0.217 C 
ATOM     10  O   UNL     1      26.358  11.438  12.971  1.00  0.00    -0.275 OA
ATOM     11  C   UNL     1      27.511   9.514  13.807  1.00  0.00     0.114 C 
ATOM     12  H   UNL     1      29.506  11.070  13.491  1.00  0.00     0.164 HD
ENDBRANCH   7   8
BRANCH   7  13
ATOM     13  C   UNL     1      29.053  12.943  11.250  1.00  0.00     0.057 A 
ATOM     14  C   UNL     1      29.602  11.941  10.499  1.00  0.00    -0.085 A 
ATOM     15  C   UNL     1      28.544  14.226  10.686  1.00  0.00     0.341 A 
ATOM     16  C   UNL     1      29.673  12.243   9.031  1.00  0.00     0.010 A 
ATOM     17  O   UNL     1      28.664  14.435   9.327  1.00  0.00    -0.423 OA
ATOM     18  O   UNL     1      28.026  15.096  11.384  1.00  0.00    -0.246 OA
ATOM     19  C   UNL     1      30.207  11.323   8.107  1.00  0.00     0.011 A 
ATOM     20  C   UNL     1      29.217  13.448   8.510  1.00  0.00     0.137 A 
ATOM     21  C   UNL     1      30.277  11.606   6.737  1.00  0.00     0.001 A 
ATOM     22  C   UNL     1      29.279  13.751   7.144  1.00  0.00     0.048 A 
ATOM     23  C   UNL     1      29.811  12.824   6.255  1.00  0.00     0.004 A 
ATOM     24  O   UNL     1      30.046  10.831  10.932  1.00  0.00    -0.872 OA
ENDBRANCH   7  13
ENDBRANCH   1   7
BRANCH   3  25
ATOM     25  N   UNL     1      33.777  13.116  13.782  1.00  0.00     0.062 N 
ATOM     26  O   UNL     1      34.527  13.785  13.051  1.00  0.00    -0.258 OA
ATOM     27  O   UNL     1      34.112  12.058  14.332  1.00  0.00    -0.258 OA
ENDBRANCH   3  25
TORSDOF 4
ENDMDL
