MODEL 1
REMARK VINA RESULT:    -8.486      0.000      0.000
REMARK INTER + INTRA:         -11.529
REMARK INTER:                 -10.471
REMARK INTRA:                  -1.058
REMARK UNBOUND:                -1.058
REMARK SMILES CC(=O)C[C@@H](c1ccccc1)c1c([O-])c2ccccc2oc1=O
REMARK SMILES IDX 4 1 2 2 3 3 1 4 5 5 6 6 7 7 11 8 8 9 10 10 9 11 12 12 13 13
REMARK SMILES IDX 22 14 15 15 21 16 23 17 16 18 20 19 17 20 19 21 18 22 14 23
REMARK H PARENT
ROOT
ATOM      1  C   UNL     1      30.243  14.990  10.041  1.00  0.00     0.088 C 
ENDROOT
BRANCH   1   2
ATOM      2  C   UNL     1      29.314  14.586  11.165  1.00  0.00     0.130 C 
ATOM      3  O   UNL     1      28.148  14.998  11.201  1.00  0.00    -0.300 OA
ATOM      4  C   UNL     1      29.824  13.656  12.232  1.00  0.00     0.087 C 
ENDBRANCH   1   2
BRANCH   1   5
ATOM      5  C   UNL     1      31.327  13.924   9.778  1.00  0.00     0.063 C 
BRANCH   5   6
ATOM      6  C   UNL     1      30.891  13.014   8.620  1.00  0.00    -0.040 A 
ATOM      7  C   UNL     1      31.411  11.715   8.506  1.00  0.00     0.004 A 
ATOM      8  C   UNL     1      29.977  13.457   7.653  1.00  0.00     0.004 A 
ATOM      9  C   UNL     1      31.017  10.878   7.460  1.00  0.00     0.000 A 
ATOM     10  C   UNL     1      29.583  12.620   6.606  1.00  0.00     0.000 A 
ATOM     11  C   UNL     1      30.100  11.329   6.512  1.00  0.00     0.000 A 
ENDBRANCH   5   6
BRANCH   5  12
ATOM     12  C   UNL     1      32.799  14.367   9.617  1.00  0.00     0.038 A 
ATOM     13  C   UNL     1      33.255  15.244   8.677  1.00  0.00    -0.086 A 
ATOM     14  C   UNL     1      33.684  13.711  10.635  1.00  0.00     0.339 A 
ATOM     15  C   UNL     1      34.732  15.513   8.741  1.00  0.00     0.010 A 
ATOM     16  O   UNL     1      35.036  13.987  10.605  1.00  0.00    -0.423 OA
ATOM     17  O   UNL     1      33.254  12.949  11.500  1.00  0.00    -0.246 OA
ATOM     18  C   UNL     1      35.367  16.408   7.857  1.00  0.00     0.011 A 
ATOM     19  C   UNL     1      35.548  14.888   9.675  1.00  0.00     0.137 A 
ATOM     20  C   UNL     1      36.743  16.657   7.912  1.00  0.00     0.001 A 
ATOM     21  C   UNL     1      36.928  15.121   9.747  1.00  0.00     0.048 A 
ATOM     22  C   UNL     1      37.527  16.011   8.862  1.00  0.00     0.004 A 
ATOM     23  O   UNL     1      32.569  15.822   7.781  1.00  0.00    -0.872 OA
ENDBRANCH   5  12
ENDBRANCH   1   5
TORSDOF 4
ENDMDL
MODEL 2
REMARK VINA RESULT:    -7.844      0.760      2.145
REMARK INTER + INTRA:         -10.736
REMARK INTER:                 -10.540
REMARK INTRA:                  -0.196
REMARK UNBOUND:                -1.058
REMARK SMILES CC(=O)C[C@@H](c1ccccc1)c1c([O-])c2ccccc2oc1=O
REMARK SMILES IDX 4 1 2 2 3 3 1 4 5 5 6 6 7 7 11 8 8 9 10 10 9 11 12 12 13 13
REMARK SMILES IDX 22 14 15 15 21 16 23 17 16 18 20 19 17 20 19 21 18 22 14 23
REMARK H PARENT
ROOT
ATOM      1  C   UNL     1      30.233  15.005   9.906  1.00  0.00     0.088 C 
ENDROOT
BRANCH   1   2
ATOM      2  C   UNL     1      29.268  14.564  10.986  1.00  0.00     0.130 C 
ATOM      3  O   UNL     1      29.620  14.525  12.171  1.00  0.00    -0.300 OA
ATOM      4  C   UNL     1      27.864  14.192  10.597  1.00  0.00     0.087 C 
ENDBRANCH   1   2
BRANCH   1   5
ATOM      5  C   UNL     1      31.351  13.968   9.673  1.00  0.00     0.063 C 
BRANCH   5   6
ATOM      6  C   UNL     1      30.925  12.982   8.574  1.00  0.00    -0.040 A 
ATOM      7  C   UNL     1      31.493  11.700   8.515  1.00  0.00     0.004 A 
ATOM      8  C   UNL     1      29.973  13.339   7.609  1.00  0.00     0.004 A 
ATOM      9  C   UNL     1      31.108  10.795   7.523  1.00  0.00     0.000 A 
ATOM     10  C   UNL     1      29.588  12.434   6.617  1.00  0.00     0.000 A 
ATOM     11  C   UNL     1      30.153  11.161   6.576  1.00  0.00     0.000 A 
ENDBRANCH   5   6
BRANCH   5  12
ATOM     12  C   UNL     1      32.801  14.455   9.455  1.00  0.00     0.038 A 
ATOM     13  C   UNL     1      33.890  14.007  10.143  1.00  0.00    -0.086 A 
ATOM     14  C   UNL     1      32.874  15.494   8.376  1.00  0.00     0.339 A 
ATOM     15  C   UNL     1      35.190  14.638   9.730  1.00  0.00     0.010 A 
ATOM     16  O   UNL     1      34.103  16.049   8.080  1.00  0.00    -0.423 OA
ATOM     17  O   UNL     1      31.888  15.864   7.739  1.00  0.00    -0.246 OA
ATOM     18  C   UNL     1      36.417  14.278  10.325  1.00  0.00     0.011 A 
ATOM     19  C   UNL     1      35.248  15.613   8.744  1.00  0.00     0.137 A 
ATOM     20  C   UNL     1      37.628  14.868   9.944  1.00  0.00     0.001 A 
ATOM     21  C   UNL     1      36.448  16.218   8.349  1.00  0.00     0.048 A 
ATOM     22  C   UNL     1      37.643  15.842   8.952  1.00  0.00     0.004 A 
ATOM     23  O   UNL     1      33.900  13.145  11.073  1.00  0.00    -0.872 OA
ENDBRANCH   5  12
ENDBRANCH   1   5
TORSDOF 4
ENDMDL
MODEL 3
REMARK VINA RESULT:    -7.680      0.964      1.406
REMARK INTER + INTRA:         -10.534
REMARK INTER:                  -9.743
REMARK INTRA:                  -0.790
REMARK UNBOUND:                -1.058
REMARK SMILES CC(=O)C[C@@H](c1ccccc1)c1c([O-])c2ccccc2oc1=O
REMARK SMILES IDX 4 1 2 2 3 3 1 4 5 5 6 6 7 7 11 8 8 9 10 10 9 11 12 12 13 13
REMARK SMILES IDX 22 14 15 15 21 16 23 17 16 18 20 19 17 20 19 21 18 22 14 23
REMARK H PARENT
ROOT
ATOM      1  C   UNL     1      29.378  14.400   9.808  1.00  0.00     0.088 C 
ENDROOT
BRANCH   1   2
ATOM      2  C   UNL     1      28.825  14.630  11.198  1.00  0.00     0.130 C 
ATOM      3  O   UNL     1      27.752  15.223  11.362  1.00  0.00    -0.300 OA
ATOM      4  C   UNL     1      29.593  14.108  12.381  1.00  0.00     0.087 C 
ENDBRANCH   1   2
BRANCH   1   5
ATOM      5  C   UNL     1      30.630  13.498   9.827  1.00  0.00     0.063 C 
BRANCH   5   6
ATOM      6  C   UNL     1      30.384  12.251   8.965  1.00  0.00    -0.040 A 
ATOM      7  C   UNL     1      30.217  12.372   7.576  1.00  0.00     0.004 A 
ATOM      8  C   UNL     1      30.315  10.973   9.539  1.00  0.00     0.004 A 
ATOM      9  C   UNL     1      29.999  11.243   6.783  1.00  0.00     0.000 A 
ATOM     10  C   UNL     1      30.096   9.845   8.747  1.00  0.00     0.000 A 
ATOM     11  C   UNL     1      29.941   9.980   7.368  1.00  0.00     0.000 A 
ENDBRANCH   5   6
BRANCH   5  12
ATOM     12  C   UNL     1      32.013  14.120   9.530  1.00  0.00     0.038 A 
ATOM     13  C   UNL     1      32.273  15.010   8.530  1.00  0.00    -0.086 A 
ATOM     14  C   UNL     1      33.054  13.625  10.489  1.00  0.00     0.339 A 
ATOM     15  C   UNL     1      33.703  15.469   8.462  1.00  0.00     0.010 A 
ATOM     16  O   UNL     1      34.352  14.070  10.337  1.00  0.00    -0.423 OA
ATOM     17  O   UNL     1      32.798  12.848  11.408  1.00  0.00    -0.246 OA
ATOM     18  C   UNL     1      34.142  16.403   7.502  1.00  0.00     0.011 A 
ATOM     19  C   UNL     1      34.665  14.992   9.342  1.00  0.00     0.137 A 
ATOM     20  C   UNL     1      35.474  16.828   7.435  1.00  0.00     0.001 A 
ATOM     21  C   UNL     1      36.004  15.403   9.292  1.00  0.00     0.048 A 
ATOM     22  C   UNL     1      36.409  16.326   8.334  1.00  0.00     0.004 A 
ATOM     23  O   UNL     1      31.448  15.459   7.678  1.00  0.00    -0.872 OA
ENDBRANCH   5  12
ENDBRANCH   1   5
TORSDOF 4
ENDMDL
MODEL 4
REMARK VINA RESULT:    -7.525      4.495      6.756
REMARK INTER + INTRA:         -10.343
REMARK INTER:                  -9.467
REMARK INTRA:                  -0.876
REMARK UNBOUND:                -1.058
REMARK SMILES CC(=O)C[C@@H](c1ccccc1)c1c([O-])c2ccccc2oc1=O
REMARK SMILES IDX 4 1 2 2 3 3 1 4 5 5 6 6 7 7 11 8 8 9 10 10 9 11 12 12 13 13
REMARK SMILES IDX 22 14 15 15 21 16 23 17 16 18 20 19 17 20 19 21 18 22 14 23
REMARK H PARENT
ROOT
ATOM      1  C   UNL     1      29.291  10.603  14.006  1.00  0.00     0.088 C 
ENDROOT
BRANCH   1   2
ATOM      2  C   UNL     1      30.351   9.918  14.841  1.00  0.00     0.130 C 
ATOM      3  O   UNL     1      30.337  10.003  16.075  1.00  0.00    -0.300 OA
ATOM      4  C   UNL     1      31.415   9.114  14.147  1.00  0.00     0.087 C 
ENDBRANCH   1   2
BRANCH   1   5
ATOM      5  C   UNL     1      29.048   9.872  12.669  1.00  0.00     0.063 C 
BRANCH   5   6
ATOM      6  C   UNL     1      27.647   9.242  12.669  1.00  0.00    -0.040 A 
ATOM      7  C   UNL     1      26.868   9.248  13.837  1.00  0.00     0.004 A 
ATOM      8  C   UNL     1      27.119   8.645  11.515  1.00  0.00     0.004 A 
ATOM      9  C   UNL     1      25.591   8.683  13.845  1.00  0.00     0.000 A 
ATOM     10  C   UNL     1      25.842   8.079  11.523  1.00  0.00     0.000 A 
ATOM     11  C   UNL     1      25.077   8.101  12.688  1.00  0.00     0.000 A 
ENDBRANCH   5   6
BRANCH   5  12
ATOM     12  C   UNL     1      29.329  10.611  11.342  1.00  0.00     0.038 A 
ATOM     13  C   UNL     1      28.878  11.859  11.029  1.00  0.00    -0.086 A 
ATOM     14  C   UNL     1      30.175   9.782  10.421  1.00  0.00     0.339 A 
ATOM     15  C   UNL     1      29.302  12.353   9.674  1.00  0.00     0.010 A 
ATOM     16  O   UNL     1      30.493  10.296   9.180  1.00  0.00    -0.423 OA
ATOM     17  O   UNL     1      30.605   8.671  10.730  1.00  0.00    -0.246 OA
ATOM     18  C   UNL     1      28.940  13.630   9.199  1.00  0.00     0.011 A 
ATOM     19  C   UNL     1      30.069  11.573   8.821  1.00  0.00     0.137 A 
ATOM     20  C   UNL     1      29.330  14.089   7.936  1.00  0.00     0.001 A 
ATOM     21  C   UNL     1      30.470  12.013   7.552  1.00  0.00     0.048 A 
ATOM     22  C   UNL     1      30.099  13.278   7.109  1.00  0.00     0.004 A 
ATOM     23  O   UNL     1      28.150  12.607  11.750  1.00  0.00    -0.872 OA
ENDBRANCH   5  12
ENDBRANCH   1   5
TORSDOF 4
ENDMDL
MODEL 5
REMARK VINA RESULT:    -7.358      1.813      4.303
REMARK INTER + INTRA:         -10.137
REMARK INTER:                  -9.189
REMARK INTRA:                  -0.948
REMARK UNBOUND:                -1.058
REMARK SMILES CC(=O)C[C@@H](c1ccccc1)c1c([O-])c2ccccc2oc1=O
REMARK SMILES IDX 4 1 2 2 3 3 1 4 5 5 6 6 7 7 11 8 8 9 10 10 9 11 12 12 13 13
REMARK SMILES IDX 22 14 15 15 21 16 23 17 16 18 20 19 17 20 19 21 18 22 14 23
REMARK H PARENT
ROOT
ATOM      1  C   UNL     1      29.889  11.752   8.659  1.00  0.00     0.088 C 
ENDROOT
BRANCH   1   2
ATOM      2  C   UNL     1      30.048  11.634   7.158  1.00  0.00     0.130 C 
ATOM      3  O   UNL     1      30.807  10.791   6.667  1.00  0.00    -0.300 OA
ATOM      4  C   UNL     1      29.251  12.549   6.269  1.00  0.00     0.087 C 
ENDBRANCH   1   2
BRANCH   1   5
ATOM      5  C   UNL     1      29.792  13.223   9.115  1.00  0.00     0.063 C 
BRANCH   5   6
ATOM      6  C   UNL     1      29.232  13.288  10.543  1.00  0.00    -0.040 A 
ATOM      7  C   UNL     1      28.852  12.112  11.208  1.00  0.00     0.004 A 
ATOM      8  C   UNL     1      29.078  14.513  11.208  1.00  0.00     0.004 A 
ATOM      9  C   UNL     1      28.346  12.160  12.510  1.00  0.00     0.000 A 
ATOM     10  C   UNL     1      28.572  14.561  12.509  1.00  0.00     0.000 A 
ATOM     11  C   UNL     1      28.209  13.384  13.160  1.00  0.00     0.000 A 
ENDBRANCH   5   6
BRANCH   5  12
ATOM     12  C   UNL     1      31.021  14.147   8.954  1.00  0.00     0.038 A 
ATOM     13  C   UNL     1      32.273  13.873   9.420  1.00  0.00    -0.086 A 
ATOM     14  C   UNL     1      30.671  15.400   8.208  1.00  0.00     0.339 A 
ATOM     15  C   UNL     1      33.294  14.935   9.122  1.00  0.00     0.010 A 
ATOM     16  O   UNL     1      31.660  16.341   8.005  1.00  0.00    -0.423 OA
ATOM     17  O   UNL     1      29.545  15.618   7.762  1.00  0.00    -0.246 OA
ATOM     18  C   UNL     1      34.641  14.806   9.516  1.00  0.00     0.011 A 
ATOM     19  C   UNL     1      32.959  16.101   8.448  1.00  0.00     0.137 A 
ATOM     20  C   UNL     1      35.592  15.797   9.243  1.00  0.00     0.001 A 
ATOM     21  C   UNL     1      33.894  17.106   8.165  1.00  0.00     0.048 A 
ATOM     22  C   UNL     1      35.217  16.951   8.564  1.00  0.00     0.004 A 
ATOM     23  O   UNL     1      32.635  12.845  10.068  1.00  0.00    -0.872 OA
ENDBRANCH   5  12
ENDBRANCH   1   5
TORSDOF 4
ENDMDL
MODEL 6
REMARK VINA RESULT:    -7.271      1.381      2.754
REMARK INTER + INTRA:         -10.030
REMARK INTER:                 -10.006
REMARK INTRA:                  -0.024
REMARK UNBOUND:                -1.058
REMARK SMILES CC(=O)C[C@@H](c1ccccc1)c1c([O-])c2ccccc2oc1=O
REMARK SMILES IDX 4 1 2 2 3 3 1 4 5 5 6 6 7 7 11 8 8 9 10 10 9 11 12 12 13 13
REMARK SMILES IDX 22 14 15 15 21 16 23 17 16 18 20 19 17 20 19 21 18 22 14 23
REMARK H PARENT
ROOT
ATOM      1  C   UNL     1      28.719  14.159   9.871  1.00  0.00     0.088 C 
ENDROOT
BRANCH   1   2
ATOM      2  C   UNL     1      28.259  14.408  11.291  1.00  0.00     0.130 C 
ATOM      3  O   UNL     1      27.741  15.485  11.608  1.00  0.00    -0.300 OA
ATOM      4  C   UNL     1      28.422  13.314  12.310  1.00  0.00     0.087 C 
ENDBRANCH   1   2
BRANCH   1   5
ATOM      5  C   UNL     1      30.123  13.520   9.823  1.00  0.00     0.063 C 
BRANCH   5   6
ATOM      6  C   UNL     1      30.051  12.159   9.116  1.00  0.00    -0.040 A 
ATOM      7  C   UNL     1      30.047  12.090   7.714  1.00  0.00     0.004 A 
ATOM      8  C   UNL     1      29.980  10.964   9.846  1.00  0.00     0.004 A 
ATOM      9  C   UNL     1      29.988  10.856   7.061  1.00  0.00     0.000 A 
ATOM     10  C   UNL     1      29.920   9.731   9.193  1.00  0.00     0.000 A 
ATOM     11  C   UNL     1      29.927   9.677   7.801  1.00  0.00     0.000 A 
ENDBRANCH   5   6
BRANCH   5  12
ATOM     12  C   UNL     1      31.317  14.356   9.308  1.00  0.00     0.038 A 
ATOM     13  C   UNL     1      32.619  14.167   9.668  1.00  0.00    -0.086 A 
ATOM     14  C   UNL     1      30.870  15.415   8.345  1.00  0.00     0.339 A 
ATOM     15  C   UNL     1      33.588  15.112   9.014  1.00  0.00     0.010 A 
ATOM     16  O   UNL     1      31.820  16.264   7.814  1.00  0.00    -0.423 OA
ATOM     17  O   UNL     1      29.696  15.551   8.002  1.00  0.00    -0.246 OA
ATOM     18  C   UNL     1      34.975  15.045   9.259  1.00  0.00     0.011 A 
ATOM     19  C   UNL     1      33.165  16.101   8.138  1.00  0.00     0.137 A 
ATOM     20  C   UNL     1      35.879  15.926   8.654  1.00  0.00     0.001 A 
ATOM     21  C   UNL     1      34.052  16.995   7.523  1.00  0.00     0.048 A 
ATOM     22  C   UNL     1      35.415  16.905   7.782  1.00  0.00     0.004 A 
ATOM     23  O   UNL     1      33.064  13.305  10.484  1.00  0.00    -0.872 OA
ENDBRANCH   5  12
ENDBRANCH   1   5
TORSDOF 4
ENDMDL
MODEL 7
REMARK VINA RESULT:    -7.229      4.815      7.510
REMARK INTER + INTRA:          -9.978
REMARK INTER:                  -9.067
REMARK INTRA:                  -0.911
REMARK UNBOUND:                -1.058
REMARK SMILES CC(=O)C[C@@H](c1ccccc1)c1c([O-])c2ccccc2oc1=O
REMARK SMILES IDX 4 1 2 2 3 3 1 4 5 5 6 6 7 7 11 8 8 9 10 10 9 11 12 12 13 13
REMARK SMILES IDX 22 14 15 15 21 16 23 17 16 18 20 19 17 20 19 21 18 22 14 23
REMARK H PARENT
ROOT
ATOM      1  C   UNL     1      30.354   9.783   9.917  1.00  0.00     0.088 C 
ENDROOT
BRANCH   1   2
ATOM      2  C   UNL     1      30.651  10.742   8.786  1.00  0.00     0.130 C 
ATOM      3  O   UNL     1      31.084  11.877   9.016  1.00  0.00    -0.300 OA
ATOM      4  C   UNL     1      30.428  10.287   7.369  1.00  0.00     0.087 C 
ENDBRANCH   1   2
BRANCH   1   5
ATOM      5  C   UNL     1      29.074  10.174  10.685  1.00  0.00     0.063 C 
BRANCH   5   6
ATOM      6  C   UNL     1      28.088   8.996  10.686  1.00  0.00    -0.040 A 
ATOM      7  C   UNL     1      28.249   7.939   9.777  1.00  0.00     0.004 A 
ATOM      8  C   UNL     1      27.009   8.953  11.580  1.00  0.00     0.004 A 
ATOM      9  C   UNL     1      27.361   6.860   9.773  1.00  0.00     0.000 A 
ATOM     10  C   UNL     1      26.121   7.875  11.576  1.00  0.00     0.000 A 
ATOM     11  C   UNL     1      26.299   6.828  10.674  1.00  0.00     0.000 A 
ENDBRANCH   5   6
BRANCH   5  12
ATOM     12  C   UNL     1      29.199  10.800  12.093  1.00  0.00     0.038 A 
ATOM     13  C   UNL     1      29.789  10.201  13.167  1.00  0.00    -0.086 A 
ATOM     14  C   UNL     1      28.588  12.168  12.141  1.00  0.00     0.339 A 
ATOM     15  C   UNL     1      29.786  11.030  14.421  1.00  0.00     0.010 A 
ATOM     16  O   UNL     1      28.597  12.850  13.341  1.00  0.00    -0.423 OA
ATOM     17  O   UNL     1      28.089  12.711  11.155  1.00  0.00    -0.246 OA
ATOM     18  C   UNL     1      30.370  10.573  15.619  1.00  0.00     0.011 A 
ATOM     19  C   UNL     1      29.202  12.289  14.462  1.00  0.00     0.137 A 
ATOM     20  C   UNL     1      30.364  11.342  16.789  1.00  0.00     0.001 A 
ATOM     21  C   UNL     1      29.183  13.075  15.622  1.00  0.00     0.048 A 
ATOM     22  C   UNL     1      29.769  12.598  16.790  1.00  0.00     0.004 A 
ATOM     23  O   UNL     1      30.311   9.046  13.201  1.00  0.00    -0.872 OA
ENDBRANCH   5  12
ENDBRANCH   1   5
TORSDOF 4
ENDMDL
MODEL 8
REMARK VINA RESULT:    -7.199      4.441      8.263
REMARK INTER + INTRA:          -9.941
REMARK INTER:                  -8.835
REMARK INTRA:                  -1.106
REMARK UNBOUND:                -1.058
REMARK SMILES CC(=O)C[C@@H](c1ccccc1)c1c([O-])c2ccccc2oc1=O
REMARK SMILES IDX 4 1 2 2 3 3 1 4 5 5 6 6 7 7 11 8 8 9 10 10 9 11 12 12 13 13
REMARK SMILES IDX 22 14 15 15 21 16 23 17 16 18 20 19 17 20 19 21 18 22 14 23
REMARK H PARENT
ROOT
ATOM      1  C   UNL     1      30.978  11.116  13.107  1.00  0.00     0.088 C 
ENDROOT
BRANCH   1   2
ATOM      2  C   UNL     1      30.877   9.958  14.076  1.00  0.00     0.130 C 
ATOM      3  O   UNL     1      31.363   8.855  13.797  1.00  0.00    -0.300 OA
ATOM      4  C   UNL     1      30.192  10.173  15.398  1.00  0.00     0.087 C 
ENDBRANCH   1   2
BRANCH   1   5
ATOM      5  C   UNL     1      29.601  11.505  12.529  1.00  0.00     0.063 C 
BRANCH   5   6
ATOM      6  C   UNL     1      29.775  12.599  11.464  1.00  0.00    -0.040 A 
ATOM      7  C   UNL     1      28.653  13.148  10.824  1.00  0.00     0.004 A 
ATOM      8  C   UNL     1      31.048  13.065  11.104  1.00  0.00     0.004 A 
ATOM      9  C   UNL     1      28.801  14.147   9.859  1.00  0.00     0.000 A 
ATOM     10  C   UNL     1      31.195  14.063  10.138  1.00  0.00     0.000 A 
ATOM     11  C   UNL     1      30.071  14.606   9.519  1.00  0.00     0.000 A 
ENDBRANCH   5   6
BRANCH   5  12
ATOM     12  C   UNL     1      28.646  10.394  12.037  1.00  0.00     0.038 A 
ATOM     13  C   UNL     1      28.902   9.542  11.003  1.00  0.00    -0.086 A 
ATOM     14  C   UNL     1      27.384  10.357  12.847  1.00  0.00     0.339 A 
ATOM     15  C   UNL     1      27.810   8.545  10.734  1.00  0.00     0.010 A 
ATOM     16  O   UNL     1      26.416   9.432  12.513  1.00  0.00    -0.423 OA
ATOM     17  O   UNL     1      27.181  11.109  13.800  1.00  0.00    -0.246 OA
ATOM     18  C   UNL     1      27.917   7.578   9.713  1.00  0.00     0.011 A 
ATOM     19  C   UNL     1      26.637   8.529  11.475  1.00  0.00     0.137 A 
ATOM     20  C   UNL     1      26.899   6.652   9.458  1.00  0.00     0.001 A 
ATOM     21  C   UNL     1      25.604   7.612  11.236  1.00  0.00     0.048 A 
ATOM     22  C   UNL     1      25.738   6.669  10.223  1.00  0.00     0.004 A 
ATOM     23  O   UNL     1      29.936   9.525  10.270  1.00  0.00    -0.872 OA
ENDBRANCH   5  12
ENDBRANCH   1   5
TORSDOF 4
ENDMDL
MODEL 9
REMARK VINA RESULT:    -7.199      1.962      4.973
REMARK INTER + INTRA:          -9.940
REMARK INTER:                  -9.336
REMARK INTRA:                  -0.604
REMARK UNBOUND:                -1.058
REMARK SMILES CC(=O)C[C@@H](c1ccccc1)c1c([O-])c2ccccc2oc1=O
REMARK SMILES IDX 4 1 2 2 3 3 1 4 5 5 6 6 7 7 11 8 8 9 10 10 9 11 12 12 13 13
REMARK SMILES IDX 22 14 15 15 21 16 23 17 16 18 20 19 17 20 19 21 18 22 14 23
REMARK H PARENT
ROOT
ATOM      1  C   UNL     1      32.887  15.068   8.495  1.00  0.00     0.088 C 
ENDROOT
BRANCH   1   2
ATOM      2  C   UNL     1      32.646  16.367   7.758  1.00  0.00     0.130 C 
ATOM      3  O   UNL     1      31.776  17.159   8.139  1.00  0.00    -0.300 OA
ATOM      4  C   UNL     1      33.497  16.692   6.561  1.00  0.00     0.087 C 
ENDBRANCH   1   2
BRANCH   1   5
ATOM      5  C   UNL     1      31.599  14.531   9.154  1.00  0.00     0.063 C 
BRANCH   5   6
ATOM      6  C   UNL     1      30.991  13.423   8.281  1.00  0.00    -0.040 A 
ATOM      7  C   UNL     1      29.999  13.732   7.337  1.00  0.00     0.004 A 
ATOM      8  C   UNL     1      31.402  12.089   8.409  1.00  0.00     0.004 A 
ATOM      9  C   UNL     1      29.444  12.733   6.534  1.00  0.00     0.000 A 
ATOM     10  C   UNL     1      30.847  11.090   7.606  1.00  0.00     0.000 A 
ATOM     11  C   UNL     1      29.870  11.413   6.667  1.00  0.00     0.000 A 
ENDBRANCH   5   6
BRANCH   5  12
ATOM     12  C   UNL     1      31.628  14.116  10.643  1.00  0.00     0.038 A 
ATOM     13  C   UNL     1      32.688  13.533  11.273  1.00  0.00    -0.086 A 
ATOM     14  C   UNL     1      30.334  14.440  11.328  1.00  0.00     0.339 A 
ATOM     15  C   UNL     1      32.461  13.237  12.729  1.00  0.00     0.010 A 
ATOM     16  O   UNL     1      30.195  14.106  12.660  1.00  0.00    -0.423 OA
ATOM     17  O   UNL     1      29.399  14.999  10.756  1.00  0.00    -0.246 OA
ATOM     18  C   UNL     1      33.457  12.652  13.536  1.00  0.00     0.011 A 
ATOM     19  C   UNL     1      31.254  13.523  13.352  1.00  0.00     0.137 A 
ATOM     20  C   UNL     1      33.245  12.373  14.891  1.00  0.00     0.001 A 
ATOM     21  C   UNL     1      31.019  13.250  14.706  1.00  0.00     0.048 A 
ATOM     22  C   UNL     1      32.022  12.673  15.478  1.00  0.00     0.004 A 
ATOM     23  O   UNL     1      33.802  13.219  10.754  1.00  0.00    -0.872 OA
ENDBRANCH   5  12
ENDBRANCH   1   5
TORSDOF 4
ENDMDL
MODEL 10
REMARK VINA RESULT:    -7.103      4.598      7.097
REMARK INTER + INTRA:          -9.823
REMARK INTER:                  -9.560
REMARK INTRA:                  -0.262
REMARK UNBOUND:                -1.058
REMARK SMILES CC(=O)C[C@@H](c1ccccc1)c1c([O-])c2ccccc2oc1=O
REMARK SMILES IDX 4 1 2 2 3 3 1 4 5 5 6 6 7 7 11 8 8 9 10 10 9 11 12 12 13 13
REMARK SMILES IDX 22 14 15 15 21 16 23 17 16 18 20 19 17 20 19 21 18 22 14 23
REMARK H PARENT
ROOT
ATOM      1  C   UNL     1      28.960  10.339  14.190  1.00  0.00     0.088 C 
ENDROOT
BRANCH   1   2
ATOM      2  C   UNL     1      30.215   9.896  14.909  1.00  0.00     0.130 C 
ATOM      3  O   UNL     1      30.356  10.099  16.121  1.00  0.00    -0.300 OA
ATOM      4  C   UNL     1      31.287   9.184  14.129  1.00  0.00     0.087 C 
ENDBRANCH   1   2
BRANCH   1   5
ATOM      5  C   UNL     1      28.769   9.595  12.851  1.00  0.00     0.063 C 
BRANCH   5   6
ATOM      6  C   UNL     1      27.363   8.980  12.794  1.00  0.00    -0.040 A 
ATOM      7  C   UNL     1      26.544   8.981  13.935  1.00  0.00     0.004 A 
ATOM      8  C   UNL     1      26.870   8.400  11.616  1.00  0.00     0.004 A 
ATOM      9  C   UNL     1      25.261   8.429  13.892  1.00  0.00     0.000 A 
ATOM     10  C   UNL     1      25.588   7.848  11.574  1.00  0.00     0.000 A 
ATOM     11  C   UNL     1      24.783   7.865  12.711  1.00  0.00     0.000 A 
ENDBRANCH   5   6
BRANCH   5  12
ATOM     12  C   UNL     1      29.117  10.317  11.529  1.00  0.00     0.038 A 
ATOM     13  C   UNL     1      29.815   9.764  10.496  1.00  0.00    -0.086 A 
ATOM     14  C   UNL     1      28.586  11.719  11.513  1.00  0.00     0.339 A 
ATOM     15  C   UNL     1      30.011  10.678   9.319  1.00  0.00     0.010 A 
ATOM     16  O   UNL     1      28.838  12.504  10.407  1.00  0.00    -0.423 OA
ATOM     17  O   UNL     1      27.928  12.193  12.439  1.00  0.00    -0.246 OA
ATOM     18  C   UNL     1      30.693  10.262   8.157  1.00  0.00     0.011 A 
ATOM     19  C   UNL     1      29.532  11.981   9.318  1.00  0.00     0.137 A 
ATOM     20  C   UNL     1      30.881  11.114   7.062  1.00  0.00     0.001 A 
ATOM     21  C   UNL     1      29.710  12.850   8.234  1.00  0.00     0.048 A 
ATOM     22  C   UNL     1      30.386  12.413   7.100  1.00  0.00     0.004 A 
ATOM     23  O   UNL     1      30.304   8.595  10.448  1.00  0.00    -0.872 OA
ENDBRANCH   5  12
ENDBRANCH   1   5
TORSDOF 4
ENDMDL
MODEL 11
REMARK VINA RESULT:    -7.067      1.868      2.610
REMARK INTER + INTRA:          -9.778
REMARK INTER:                  -8.984
REMARK INTRA:                  -0.794
REMARK UNBOUND:                -1.058
REMARK SMILES CC(=O)C[C@@H](c1ccccc1)c1c([O-])c2ccccc2oc1=O
REMARK SMILES IDX 4 1 2 2 3 3 1 4 5 5 6 6 7 7 11 8 8 9 10 10 9 11 12 12 13 13
REMARK SMILES IDX 22 14 15 15 21 16 23 17 16 18 20 19 17 20 19 21 18 22 14 23
REMARK H PARENT
ROOT
ATOM      1  C   UNL     1      30.135  13.474  11.712  1.00  0.00     0.088 C 
ENDROOT
BRANCH   1   2
ATOM      2  C   UNL     1      30.672  13.918  13.055  1.00  0.00     0.130 C 
ATOM      3  O   UNL     1      30.194  14.900  13.634  1.00  0.00    -0.300 OA
ATOM      4  C   UNL     1      31.789  13.133  13.686  1.00  0.00     0.087 C 
ENDBRANCH   1   2
BRANCH   1   5
ATOM      5  C   UNL     1      31.264  13.036  10.755  1.00  0.00     0.063 C 
BRANCH   5   6
ATOM      6  C   UNL     1      30.789  11.851   9.900  1.00  0.00    -0.040 A 
ATOM      7  C   UNL     1      30.105  10.779  10.495  1.00  0.00     0.004 A 
ATOM      8  C   UNL     1      31.033  11.807   8.520  1.00  0.00     0.004 A 
ATOM      9  C   UNL     1      29.664   9.700   9.726  1.00  0.00     0.000 A 
ATOM     10  C   UNL     1      30.593  10.728   7.751  1.00  0.00     0.000 A 
ATOM     11  C   UNL     1      29.905   9.676   8.353  1.00  0.00     0.000 A 
ENDBRANCH   5   6
BRANCH   5  12
ATOM     12  C   UNL     1      31.977  14.099   9.890  1.00  0.00     0.038 A 
ATOM     13  C   UNL     1      31.348  15.046   9.136  1.00  0.00    -0.086 A 
ATOM     14  C   UNL     1      33.468  13.970   9.980  1.00  0.00     0.339 A 
ATOM     15  C   UNL     1      32.275  15.968   8.394  1.00  0.00     0.010 A 
ATOM     16  O   UNL     1      34.249  14.835   9.240  1.00  0.00    -0.423 OA
ATOM     17  O   UNL     1      34.023  13.133  10.691  1.00  0.00    -0.246 OA
ATOM     18  C   UNL     1      31.794  17.016   7.583  1.00  0.00     0.011 A 
ATOM     19  C   UNL     1      33.654  15.830   8.468  1.00  0.00     0.137 A 
ATOM     20  C   UNL     1      32.656  17.872   6.888  1.00  0.00     0.001 A 
ATOM     21  C   UNL     1      34.535  16.675   7.780  1.00  0.00     0.048 A 
ATOM     22  C   UNL     1      34.032  17.701   6.988  1.00  0.00     0.004 A 
ATOM     23  O   UNL     1      30.097  15.204   9.003  1.00  0.00    -0.872 OA
ENDBRANCH   5  12
ENDBRANCH   1   5
TORSDOF 4
ENDMDL
MODEL 12
REMARK VINA RESULT:    -7.013      4.530      6.879
REMARK INTER + INTRA:          -9.712
REMARK INTER:                  -8.558
REMARK INTRA:                  -1.154
REMARK UNBOUND:                -1.058
REMARK SMILES CC(=O)C[C@@H](c1ccccc1)c1c([O-])c2ccccc2oc1=O
REMARK SMILES IDX 4 1 2 2 3 3 1 4 5 5 6 6 7 7 11 8 8 9 10 10 9 11 12 12 13 13
REMARK SMILES IDX 22 14 15 15 21 16 23 17 16 18 20 19 17 20 19 21 18 22 14 23
REMARK H PARENT
ROOT
ATOM      1  C   UNL     1      28.643   9.584  13.791  1.00  0.00     0.088 C 
ENDROOT
BRANCH   1   2
ATOM      2  C   UNL     1      27.249   9.819  13.253  1.00  0.00     0.130 C 
ATOM      3  O   UNL     1      26.533  10.713  13.719  1.00  0.00    -0.300 OA
ATOM      4  C   UNL     1      26.751   8.959  12.123  1.00  0.00     0.087 C 
ENDBRANCH   1   2
BRANCH   1   5
ATOM      5  C   UNL     1      29.627  10.688  13.350  1.00  0.00     0.063 C 
BRANCH   5   6
ATOM      6  C   UNL     1      31.025  10.394  13.915  1.00  0.00    -0.040 A 
ATOM      7  C   UNL     1      31.994  11.408  13.966  1.00  0.00     0.004 A 
ATOM      8  C   UNL     1      31.366   9.116  14.381  1.00  0.00     0.004 A 
ATOM      9  C   UNL     1      33.266  11.153  14.483  1.00  0.00     0.000 A 
ATOM     10  C   UNL     1      32.638   8.861  14.897  1.00  0.00     0.000 A 
ATOM     11  C   UNL     1      33.587   9.880  14.951  1.00  0.00     0.000 A 
ENDBRANCH   5   6
BRANCH   5  12
ATOM     12  C   UNL     1      29.698  11.085  11.859  1.00  0.00     0.038 A 
ATOM     13  C   UNL     1      30.081  10.256  10.845  1.00  0.00    -0.086 A 
ATOM     14  C   UNL     1      29.286  12.511  11.650  1.00  0.00     0.339 A 
ATOM     15  C   UNL     1      30.055  10.888   9.482  1.00  0.00     0.010 A 
ATOM     16  O   UNL     1      29.321  13.025  10.370  1.00  0.00    -0.423 OA
ATOM     17  O   UNL     1      28.908  13.238  12.570  1.00  0.00    -0.246 OA
ATOM     18  C   UNL     1      30.403  10.169   8.320  1.00  0.00     0.011 A 
ATOM     19  C   UNL     1      29.690  12.214   9.299  1.00  0.00     0.137 A 
ATOM     20  C   UNL     1      30.383  10.758   7.050  1.00  0.00     0.001 A 
ATOM     21  C   UNL     1      29.664  12.824   8.037  1.00  0.00     0.048 A 
ATOM     22  C   UNL     1      30.011  12.090   6.908  1.00  0.00     0.004 A 
ATOM     23  O   UNL     1      30.455   9.049  10.950  1.00  0.00    -0.872 OA
ENDBRANCH   5  12
ENDBRANCH   1   5
TORSDOF 4
ENDMDL
MODEL 13
REMARK VINA RESULT:    -6.930      2.109      4.783
REMARK INTER + INTRA:          -9.608
REMARK INTER:                  -8.720
REMARK INTRA:                  -0.889
REMARK UNBOUND:                -1.058
REMARK SMILES CC(=O)C[C@@H](c1ccccc1)c1c([O-])c2ccccc2oc1=O
REMARK SMILES IDX 4 1 2 2 3 3 1 4 5 5 6 6 7 7 11 8 8 9 10 10 9 11 12 12 13 13
REMARK SMILES IDX 22 14 15 15 21 16 23 17 16 18 20 19 17 20 19 21 18 22 14 23
REMARK H PARENT
ROOT
ATOM      1  C   UNL     1      31.034  11.663  10.540  1.00  0.00     0.088 C 
ENDROOT
BRANCH   1   2
ATOM      2  C   UNL     1      30.144  10.963   9.536  1.00  0.00     0.130 C 
ATOM      3  O   UNL     1      29.890  11.485   8.444  1.00  0.00    -0.300 OA
ATOM      4  C   UNL     1      29.585   9.610   9.880  1.00  0.00     0.087 C 
ENDBRANCH   1   2
BRANCH   1   5
ATOM      5  C   UNL     1      30.650  13.147  10.716  1.00  0.00     0.063 C 
BRANCH   5   6
ATOM      6  C   UNL     1      30.811  13.554  12.189  1.00  0.00    -0.040 A 
ATOM      7  C   UNL     1      29.969  14.527  12.750  1.00  0.00     0.004 A 
ATOM      8  C   UNL     1      31.799  12.975  12.998  1.00  0.00     0.004 A 
ATOM      9  C   UNL     1      30.104  14.900  14.089  1.00  0.00     0.000 A 
ATOM     10  C   UNL     1      31.934  13.348  14.337  1.00  0.00     0.000 A 
ATOM     11  C   UNL     1      31.085  14.308  14.883  1.00  0.00     0.000 A 
ENDBRANCH   5   6
BRANCH   5  12
ATOM     12  C   UNL     1      31.266  14.205   9.773  1.00  0.00     0.038 A 
ATOM     13  C   UNL     1      32.600  14.360   9.536  1.00  0.00    -0.086 A 
ATOM     14  C   UNL     1      30.207  15.053   9.135  1.00  0.00     0.339 A 
ATOM     15  C   UNL     1      32.936  15.459   8.567  1.00  0.00     0.010 A 
ATOM     16  O   UNL     1      30.602  16.064   8.282  1.00  0.00    -0.423 OA
ATOM     17  O   UNL     1      29.005  14.879   9.331  1.00  0.00    -0.246 OA
ATOM     18  C   UNL     1      34.264  15.744   8.194  1.00  0.00     0.011 A 
ATOM     19  C   UNL     1      31.951  16.253   7.994  1.00  0.00     0.137 A 
ATOM     20  C   UNL     1      34.579  16.771   7.295  1.00  0.00     0.001 A 
ATOM     21  C   UNL     1      32.244  17.286   7.094  1.00  0.00     0.048 A 
ATOM     22  C   UNL     1      33.564  17.544   6.743  1.00  0.00     0.004 A 
ATOM     23  O   UNL     1      33.546  13.690  10.049  1.00  0.00    -0.872 OA
ENDBRANCH   5  12
ENDBRANCH   1   5
TORSDOF 4
ENDMDL
MODEL 14
REMARK VINA RESULT:    -6.791      6.395      8.983
REMARK INTER + INTRA:          -9.437
REMARK INTER:                  -8.731
REMARK INTRA:                  -0.706
REMARK UNBOUND:                -1.058
REMARK SMILES CC(=O)C[C@@H](c1ccccc1)c1c([O-])c2ccccc2oc1=O
REMARK SMILES IDX 4 1 2 2 3 3 1 4 5 5 6 6 7 7 11 8 8 9 10 10 9 11 12 12 13 13
REMARK SMILES IDX 22 14 15 15 21 16 23 17 16 18 20 19 17 20 19 21 18 22 14 23
REMARK H PARENT
ROOT
ATOM      1  C   UNL     1      29.890  11.337  14.005  1.00  0.00     0.088 C 
ENDROOT
BRANCH   1   2
ATOM      2  C   UNL     1      30.378  10.204  14.881  1.00  0.00     0.130 C 
ATOM      3  O   UNL     1      30.052  10.139  16.072  1.00  0.00    -0.300 OA
ATOM      4  C   UNL     1      31.254   9.142  14.275  1.00  0.00     0.087 C 
ENDBRANCH   1   2
BRANCH   1   5
ATOM      5  C   UNL     1      28.363  11.282  13.788  1.00  0.00     0.063 C 
BRANCH   5   6
ATOM      6  C   UNL     1      27.844  12.674  13.396  1.00  0.00    -0.040 A 
ATOM      7  C   UNL     1      28.003  13.143  12.083  1.00  0.00     0.004 A 
ATOM      8  C   UNL     1      27.212  13.504  14.333  1.00  0.00     0.004 A 
ATOM      9  C   UNL     1      27.529  14.405  11.715  1.00  0.00     0.000 A 
ATOM     10  C   UNL     1      26.739  14.765  13.966  1.00  0.00     0.000 A 
ATOM     11  C   UNL     1      26.895  15.214  12.656  1.00  0.00     0.000 A 
ENDBRANCH   5   6
BRANCH   5  12
ATOM     12  C   UNL     1      27.768  10.186  12.876  1.00  0.00     0.038 A 
ATOM     13  C   UNL     1      28.377   9.672  11.769  1.00  0.00    -0.086 A 
ATOM     14  C   UNL     1      26.420   9.741  13.361  1.00  0.00     0.339 A 
ATOM     15  C   UNL     1      27.586   8.607  11.062  1.00  0.00     0.010 A 
ATOM     16  O   UNL     1      25.745   8.780  12.635  1.00  0.00    -0.423 OA
ATOM     17  O   UNL     1      25.898  10.188  14.382  1.00  0.00    -0.246 OA
ATOM     18  C   UNL     1      28.075   7.956   9.911  1.00  0.00     0.011 A 
ATOM     19  C   UNL     1      26.332   8.213  11.506  1.00  0.00     0.137 A 
ATOM     20  C   UNL     1      27.338   6.966   9.249  1.00  0.00     0.001 A 
ATOM     21  C   UNL     1      25.576   7.227  10.858  1.00  0.00     0.048 A 
ATOM     22  C   UNL     1      26.084   6.600   9.725  1.00  0.00     0.004 A 
ATOM     23  O   UNL     1      29.504  10.010  11.296  1.00  0.00    -0.872 OA
ENDBRANCH   5  12
ENDBRANCH   1   5
TORSDOF 4
ENDMDL
MODEL 15
REMARK VINA RESULT:    -6.787      4.545      7.392
REMARK INTER + INTRA:          -9.433
REMARK INTER:                  -8.539
REMARK INTRA:                  -0.894
REMARK UNBOUND:                -1.058
REMARK SMILES CC(=O)C[C@@H](c1ccccc1)c1c([O-])c2ccccc2oc1=O
REMARK SMILES IDX 4 1 2 2 3 3 1 4 5 5 6 6 7 7 11 8 8 9 10 10 9 11 12 12 13 13
REMARK SMILES IDX 22 14 15 15 21 16 23 17 16 18 20 19 17 20 19 21 18 22 14 23
REMARK H PARENT
ROOT
ATOM      1  C   UNL     1      27.237   9.502  13.712  1.00  0.00     0.088 C 
ENDROOT
BRANCH   1   2
ATOM      2  C   UNL     1      25.763   9.628  14.027  1.00  0.00     0.130 C 
ATOM      3  O   UNL     1      25.125   8.665  14.468  1.00  0.00    -0.300 OA
ATOM      4  C   UNL     1      25.085  10.954  13.813  1.00  0.00     0.087 C 
ENDBRANCH   1   2
BRANCH   1   5
ATOM      5  C   UNL     1      27.899  10.877  13.485  1.00  0.00     0.063 C 
BRANCH   5   6
ATOM      6  C   UNL     1      28.907  11.160  14.609  1.00  0.00    -0.040 A 
ATOM      7  C   UNL     1      29.824  10.172  15.002  1.00  0.00     0.004 A 
ATOM      8  C   UNL     1      28.930  12.397  15.270  1.00  0.00     0.004 A 
ATOM      9  C   UNL     1      30.748  10.422  16.020  1.00  0.00     0.000 A 
ATOM     10  C   UNL     1      29.853  12.646  16.287  1.00  0.00     0.000 A 
ATOM     11  C   UNL     1      30.764  11.660  16.660  1.00  0.00     0.000 A 
ENDBRANCH   5   6
BRANCH   5  12
ATOM     12  C   UNL     1      28.499  11.208  12.100  1.00  0.00     0.038 A 
ATOM     13  C   UNL     1      29.259  10.358  11.352  1.00  0.00    -0.086 A 
ATOM     14  C   UNL     1      28.137  12.596  11.663  1.00  0.00     0.339 A 
ATOM     15  C   UNL     1      29.712  10.924  10.035  1.00  0.00     0.010 A 
ATOM     16  O   UNL     1      28.621  13.052  10.453  1.00  0.00    -0.423 OA
ATOM     17  O   UNL     1      27.420  13.341  12.332  1.00  0.00    -0.246 OA
ATOM     18  C   UNL     1      30.490  10.174   9.130  1.00  0.00     0.011 A 
ATOM     19  C   UNL     1      29.389  12.216   9.646  1.00  0.00     0.137 A 
ATOM     20  C   UNL     1      30.916  10.701   7.904  1.00  0.00     0.001 A 
ATOM     21  C   UNL     1      29.805  12.764   8.425  1.00  0.00     0.048 A 
ATOM     22  C   UNL     1      30.572  12.001   7.551  1.00  0.00     0.004 A 
ATOM     23  O   UNL     1      29.614   9.182  11.664  1.00  0.00    -0.872 OA
ENDBRANCH   5  12
ENDBRANCH   1   5
TORSDOF 4
ENDMDL
MODEL 16
REMARK VINA RESULT:    -6.779      3.363      7.553
REMARK INTER + INTRA:          -9.422
REMARK INTER:                  -8.541
REMARK INTRA:                  -0.881
REMARK UNBOUND:                -1.058
REMARK SMILES CC(=O)C[C@@H](c1ccccc1)c1c([O-])c2ccccc2oc1=O
REMARK SMILES IDX 4 1 2 2 3 3 1 4 5 5 6 6 7 7 11 8 8 9 10 10 9 11 12 12 13 13
REMARK SMILES IDX 22 14 15 15 21 16 23 17 16 18 20 19 17 20 19 21 18 22 14 23
REMARK H PARENT
ROOT
ATOM      1  C   UNL     1      31.466  11.982  11.133  1.00  0.00     0.088 C 
ENDROOT
BRANCH   1   2
ATOM      2  C   UNL     1      32.414  13.126  11.420  1.00  0.00     0.130 C 
ATOM      3  O   UNL     1      32.506  13.601  12.558  1.00  0.00    -0.300 OA
ATOM      4  C   UNL     1      33.259  13.667  10.300  1.00  0.00     0.087 C 
ENDBRANCH   1   2
BRANCH   1   5
ATOM      5  C   UNL     1      30.056  12.481  10.756  1.00  0.00     0.063 C 
BRANCH   5   6
ATOM      6  C   UNL     1      29.883  12.447   9.230  1.00  0.00    -0.040 A 
ATOM      7  C   UNL     1      30.252  11.305   8.502  1.00  0.00     0.004 A 
ATOM      8  C   UNL     1      29.367  13.548   8.533  1.00  0.00     0.004 A 
ATOM      9  C   UNL     1      30.094  11.261   7.115  1.00  0.00     0.000 A 
ATOM     10  C   UNL     1      29.209  13.506   7.146  1.00  0.00     0.000 A 
ATOM     11  C   UNL     1      29.570  12.361   6.438  1.00  0.00     0.000 A 
ENDBRANCH   5   6
BRANCH   5  12
ATOM     12  C   UNL     1      28.825  11.880  11.472  1.00  0.00     0.038 A 
ATOM     13  C   UNL     1      28.608  10.548  11.671  1.00  0.00    -0.086 A 
ATOM     14  C   UNL     1      27.882  12.950  11.933  1.00  0.00     0.339 A 
ATOM     15  C   UNL     1      27.334  10.228  12.403  1.00  0.00     0.010 A 
ATOM     16  O   UNL     1      26.717  12.570  12.570  1.00  0.00    -0.423 OA
ATOM     17  O   UNL     1      28.107  14.151  11.778  1.00  0.00    -0.246 OA
ATOM     18  C   UNL     1      26.963   8.904  12.710  1.00  0.00     0.011 A 
ATOM     19  C   UNL     1      26.457  11.224  12.811  1.00  0.00     0.137 A 
ATOM     20  C   UNL     1      25.776   8.604  13.389  1.00  0.00     0.001 A 
ATOM     21  C   UNL     1      25.263  10.946  13.490  1.00  0.00     0.048 A 
ATOM     22  C   UNL     1      24.923   9.629  13.780  1.00  0.00     0.004 A 
ATOM     23  O   UNL     1      29.352   9.592  11.297  1.00  0.00    -0.872 OA
ENDBRANCH   5  12
ENDBRANCH   1   5
TORSDOF 4
ENDMDL
MODEL 17
REMARK VINA RESULT:    -6.760      1.897      5.696
REMARK INTER + INTRA:          -9.399
REMARK INTER:                  -8.616
REMARK INTRA:                  -0.783
REMARK UNBOUND:                -1.058
REMARK SMILES CC(=O)C[C@@H](c1ccccc1)c1c([O-])c2ccccc2oc1=O
REMARK SMILES IDX 4 1 2 2 3 3 1 4 5 5 6 6 7 7 11 8 8 9 10 10 9 11 12 12 13 13
REMARK SMILES IDX 22 14 15 15 21 16 23 17 16 18 20 19 17 20 19 21 18 22 14 23
REMARK H PARENT
ROOT
ATOM      1  C   UNL     1      30.827  13.148   8.268  1.00  0.00     0.088 C 
ENDROOT
BRANCH   1   2
ATOM      2  C   UNL     1      30.626  11.664   8.480  1.00  0.00     0.130 C 
ATOM      3  O   UNL     1      30.028  11.242   9.477  1.00  0.00    -0.300 OA
ATOM      4  C   UNL     1      31.149  10.705   7.446  1.00  0.00     0.087 C 
ENDBRANCH   1   2
BRANCH   1   5
ATOM      5  C   UNL     1      31.816  13.748   9.290  1.00  0.00     0.063 C 
BRANCH   5   6
ATOM      6  C   UNL     1      32.422  15.043   8.729  1.00  0.00    -0.040 A 
ATOM      7  C   UNL     1      31.598  16.003   8.119  1.00  0.00     0.004 A 
ATOM      8  C   UNL     1      33.800  15.292   8.803  1.00  0.00     0.004 A 
ATOM      9  C   UNL     1      32.139  17.186   7.610  1.00  0.00     0.000 A 
ATOM     10  C   UNL     1      34.340  16.475   8.294  1.00  0.00     0.000 A 
ATOM     11  C   UNL     1      33.509  17.423   7.700  1.00  0.00     0.000 A 
ENDBRANCH   5   6
BRANCH   5  12
ATOM     12  C   UNL     1      31.367  13.931  10.758  1.00  0.00     0.038 A 
ATOM     13  C   UNL     1      30.174  14.461  11.152  1.00  0.00    -0.086 A 
ATOM     14  C   UNL     1      32.414  13.447  11.716  1.00  0.00     0.339 A 
ATOM     15  C   UNL     1      29.980  14.519  12.641  1.00  0.00     0.010 A 
ATOM     16  O   UNL     1      32.172  13.567  13.069  1.00  0.00    -0.423 OA
ATOM     17  O   UNL     1      33.472  12.938  11.346  1.00  0.00    -0.246 OA
ATOM     18  C   UNL     1      28.797  15.020  13.221  1.00  0.00     0.011 A 
ATOM     19  C   UNL     1      30.962  14.086  13.522  1.00  0.00     0.137 A 
ATOM     20  C   UNL     1      28.617  15.079  14.608  1.00  0.00     0.001 A 
ATOM     21  C   UNL     1      30.803  14.137  14.914  1.00  0.00     0.048 A 
ATOM     22  C   UNL     1      29.624  14.635  15.458  1.00  0.00     0.004 A 
ATOM     23  O   UNL     1      29.252  14.902  10.400  1.00  0.00    -0.872 OA
ENDBRANCH   5  12
ENDBRANCH   1   5
TORSDOF 4
ENDMDL
MODEL 18
REMARK VINA RESULT:    -6.687      1.414      3.789
REMARK INTER + INTRA:          -9.309
REMARK INTER:                  -8.510
REMARK INTRA:                  -0.798
REMARK UNBOUND:                -1.058
REMARK SMILES CC(=O)C[C@@H](c1ccccc1)c1c([O-])c2ccccc2oc1=O
REMARK SMILES IDX 4 1 2 2 3 3 1 4 5 5 6 6 7 7 11 8 8 9 10 10 9 11 12 12 13 13
REMARK SMILES IDX 22 14 15 15 21 16 23 17 16 18 20 19 17 20 19 21 18 22 14 23
REMARK H PARENT
ROOT
ATOM      1  C   UNL     1      31.124  12.601   8.611  1.00  0.00     0.088 C 
ENDROOT
BRANCH   1   2
ATOM      2  C   UNL     1      29.916  12.825   7.728  1.00  0.00     0.130 C 
ATOM      3  O   UNL     1      29.150  13.774   7.933  1.00  0.00    -0.300 OA
ATOM      4  C   UNL     1      29.669  11.882   6.582  1.00  0.00     0.087 C 
ENDBRANCH   1   2
BRANCH   1   5
ATOM      5  C   UNL     1      31.432  13.832   9.490  1.00  0.00     0.063 C 
BRANCH   5   6
ATOM      6  C   UNL     1      31.224  13.478  10.970  1.00  0.00    -0.040 A 
ATOM      7  C   UNL     1      31.325  12.145  11.400  1.00  0.00     0.004 A 
ATOM      8  C   UNL     1      30.923  14.467  11.918  1.00  0.00     0.004 A 
ATOM      9  C   UNL     1      31.143  11.814  12.745  1.00  0.00     0.000 A 
ATOM     10  C   UNL     1      30.740  14.136  13.262  1.00  0.00     0.000 A 
ATOM     11  C   UNL     1      30.853  12.810  13.676  1.00  0.00     0.000 A 
ENDBRANCH   5   6
BRANCH   5  12
ATOM     12  C   UNL     1      32.758  14.598   9.279  1.00  0.00     0.038 A 
ATOM     13  C   UNL     1      33.986  14.165   9.684  1.00  0.00    -0.086 A 
ATOM     14  C   UNL     1      32.533  15.895   8.561  1.00  0.00     0.339 A 
ATOM     15  C   UNL     1      35.116  15.097   9.348  1.00  0.00     0.010 A 
ATOM     16  O   UNL     1      33.621  16.709   8.319  1.00  0.00    -0.423 OA
ATOM     17  O   UNL     1      31.424  16.257   8.169  1.00  0.00    -0.246 OA
ATOM     18  C   UNL     1      36.454  14.796   9.677  1.00  0.00     0.011 A 
ATOM     19  C   UNL     1      34.898  16.304   8.699  1.00  0.00     0.137 A 
ATOM     20  C   UNL     1      37.507  15.665   9.368  1.00  0.00     0.001 A 
ATOM     21  C   UNL     1      35.937  17.189   8.382  1.00  0.00     0.048 A 
ATOM     22  C   UNL     1      37.248  16.866   8.717  1.00  0.00     0.004 A 
ATOM     23  O   UNL     1      34.246  13.091  10.306  1.00  0.00    -0.872 OA
ENDBRANCH   5  12
ENDBRANCH   1   5
TORSDOF 4
ENDMDL
MODEL 19
REMARK VINA RESULT:    -6.666      3.677      5.548
REMARK INTER + INTRA:          -9.283
REMARK INTER:                  -8.271
REMARK INTRA:                  -1.012
REMARK UNBOUND:                -1.058
REMARK SMILES CC(=O)C[C@@H](c1ccccc1)c1c([O-])c2ccccc2oc1=O
REMARK SMILES IDX 4 1 2 2 3 3 1 4 5 5 6 6 7 7 11 8 8 9 10 10 9 11 12 12 13 13
REMARK SMILES IDX 22 14 15 15 21 16 23 17 16 18 20 19 17 20 19 21 18 22 14 23
REMARK H PARENT
ROOT
ATOM      1  C   UNL     1      30.492  13.449   9.141  1.00  0.00     0.088 C 
ENDROOT
BRANCH   1   2
ATOM      2  C   UNL     1      29.674  14.085   8.039  1.00  0.00     0.130 C 
ATOM      3  O   UNL     1      29.284  15.255   8.135  1.00  0.00    -0.300 OA
ATOM      4  C   UNL     1      29.356  13.278   6.811  1.00  0.00     0.087 C 
ENDBRANCH   1   2
BRANCH   1   5
ATOM      5  C   UNL     1      29.640  13.147  10.392  1.00  0.00     0.063 C 
BRANCH   5   6
ATOM      6  C   UNL     1      29.352  11.640  10.473  1.00  0.00    -0.040 A 
ATOM      7  C   UNL     1      29.971  10.753   9.577  1.00  0.00     0.004 A 
ATOM      8  C   UNL     1      28.468  11.120  11.428  1.00  0.00     0.004 A 
ATOM      9  C   UNL     1      29.720   9.380   9.646  1.00  0.00     0.000 A 
ATOM     10  C   UNL     1      28.217   9.748  11.496  1.00  0.00     0.000 A 
ATOM     11  C   UNL     1      28.845   8.878  10.607  1.00  0.00     0.000 A 
ENDBRANCH   5   6
BRANCH   5  12
ATOM     12  C   UNL     1      30.084  13.706  11.762  1.00  0.00     0.038 A 
ATOM     13  C   UNL     1      31.202  13.317  12.441  1.00  0.00    -0.086 A 
ATOM     14  C   UNL     1      29.129  14.746  12.266  1.00  0.00     0.339 A 
ATOM     15  C   UNL     1      31.411  14.024  13.751  1.00  0.00     0.010 A 
ATOM     16  O   UNL     1      29.376  15.324  13.495  1.00  0.00    -0.423 OA
ATOM     17  O   UNL     1      28.144  15.112  11.627  1.00  0.00    -0.246 OA
ATOM     18  C   UNL     1      32.525  13.759  14.573  1.00  0.00     0.011 A 
ATOM     19  C   UNL     1      30.512  14.973  14.220  1.00  0.00     0.137 A 
ATOM     20  C   UNL     1      32.718  14.413  15.795  1.00  0.00     0.001 A 
ATOM     21  C   UNL     1      30.686  15.639  15.441  1.00  0.00     0.048 A 
ATOM     22  C   UNL     1      31.796  15.358  16.230  1.00  0.00     0.004 A 
ATOM     23  O   UNL     1      32.042  12.437  12.083  1.00  0.00    -0.872 OA
ENDBRANCH   5  12
ENDBRANCH   1   5
TORSDOF 4
ENDMDL
MODEL 20
REMARK VINA RESULT:    -6.618      2.769      4.211
REMARK INTER + INTRA:          -9.224
REMARK INTER:                  -8.336
REMARK INTRA:                  -0.888
REMARK UNBOUND:                -1.058
REMARK SMILES CC(=O)C[C@@H](c1ccccc1)c1c([O-])c2ccccc2oc1=O
REMARK SMILES IDX 4 1 2 2 3 3 1 4 5 5 6 6 7 7 11 8 8 9 10 10 9 11 12 12 13 13
REMARK SMILES IDX 22 14 15 15 21 16 23 17 16 18 20 19 17 20 19 21 18 22 14 23
REMARK H PARENT
ROOT
ATOM      1  C   UNL     1      27.995  12.337  12.843  1.00  0.00     0.088 C 
ENDROOT
BRANCH   1   2
ATOM      2  C   UNL     1      28.378  13.126  14.076  1.00  0.00     0.130 C 
ATOM      3  O   UNL     1      27.995  14.293  14.225  1.00  0.00    -0.300 OA
ATOM      4  C   UNL     1      29.219  12.463  15.132  1.00  0.00     0.087 C 
ENDBRANCH   1   2
BRANCH   1   5
ATOM      5  C   UNL     1      29.218  11.666  12.184  1.00  0.00     0.063 C 
BRANCH   5   6
ATOM      6  C   UNL     1      28.777  10.396  11.441  1.00  0.00    -0.040 A 
ATOM      7  C   UNL     1      29.530   9.912  10.360  1.00  0.00     0.004 A 
ATOM      8  C   UNL     1      27.618   9.701  11.816  1.00  0.00     0.004 A 
ATOM      9  C   UNL     1      29.140   8.755   9.681  1.00  0.00     0.000 A 
ATOM     10  C   UNL     1      27.228   8.545  11.138  1.00  0.00     0.000 A 
ATOM     11  C   UNL     1      27.991   8.070  10.072  1.00  0.00     0.000 A 
ENDBRANCH   5   6
BRANCH   5  12
ATOM     12  C   UNL     1      30.172  12.519  11.317  1.00  0.00     0.038 A 
ATOM     13  C   UNL     1      29.793  13.268  10.242  1.00  0.00    -0.086 A 
ATOM     14  C   UNL     1      31.586  12.428  11.805  1.00  0.00     0.339 A 
ATOM     15  C   UNL     1      30.917  14.012   9.575  1.00  0.00     0.010 A 
ATOM     16  O   UNL     1      32.565  13.116  11.116  1.00  0.00    -0.423 OA
ATOM     17  O   UNL     1      31.909  11.775  12.798  1.00  0.00    -0.246 OA
ATOM     18  C   UNL     1      30.700  14.849   8.462  1.00  0.00     0.011 A 
ATOM     19  C   UNL     1      32.227  13.908  10.022  1.00  0.00     0.137 A 
ATOM     20  C   UNL     1      31.746  15.539   7.837  1.00  0.00     0.001 A 
ATOM     21  C   UNL     1      33.289  14.588   9.411  1.00  0.00     0.048 A 
ATOM     22  C   UNL     1      33.045  15.408   8.314  1.00  0.00     0.004 A 
ATOM     23  O   UNL     1      28.623  13.380   9.767  1.00  0.00    -0.872 OA
ENDBRANCH   5  12
ENDBRANCH   1   5
TORSDOF 4
ENDMDL
