MODEL 1
REMARK VINA RESULT:    -8.753      0.000      0.000
REMARK INTER + INTRA:         -11.663
REMARK INTER:                 -10.800
REMARK INTRA:                  -0.863
REMARK UNBOUND:                -0.863
REMARK SMILES CC(=O)C[C@H](c1ccccc1)c1c([O-])c2ccccc2oc1=O
REMARK SMILES IDX 4 1 2 2 3 3 1 4 5 5 6 6 7 7 11 8 8 9 10 10 9 11 12 12 13 13
REMARK SMILES IDX 22 14 15 15 21 16 23 17 16 18 20 19 17 20 19 21 18 22 14 23
REMARK H PARENT
ROOT
ATOM      1  C   UNL     1      30.779  14.196  10.824  1.00  0.00     0.088 C 
ENDROOT
BRANCH   1   2
ATOM      2  C   UNL     1      29.273  14.164  10.962  1.00  0.00     0.130 C 
ATOM      3  O   UNL     1      28.608  15.204  10.894  1.00  0.00    -0.300 OA
ATOM      4  C   UNL     1      28.595  12.843  11.203  1.00  0.00     0.087 C 
ENDBRANCH   1   2
BRANCH   1   5
ATOM      5  C   UNL     1      31.220  14.561   9.390  1.00  0.00     0.063 C 
BRANCH   5   6
ATOM      6  C   UNL     1      30.833  13.433   8.423  1.00  0.00    -0.040 A 
ATOM      7  C   UNL     1      31.332  12.131   8.588  1.00  0.00     0.004 A 
ATOM      8  C   UNL     1      29.971  13.689   7.345  1.00  0.00     0.004 A 
ATOM      9  C   UNL     1      30.970  11.112   7.706  1.00  0.00     0.000 A 
ATOM     10  C   UNL     1      29.609  12.668   6.465  1.00  0.00     0.000 A 
ATOM     11  C   UNL     1      30.106  11.379   6.647  1.00  0.00     0.000 A 
ENDBRANCH   5   6
BRANCH   5  12
ATOM     12  C   UNL     1      32.670  15.036   9.144  1.00  0.00     0.038 A 
ATOM     13  C   UNL     1      33.786  14.449   9.666  1.00  0.00    -0.086 A 
ATOM     14  C   UNL     1      32.709  16.241   8.254  1.00  0.00     0.339 A 
ATOM     15  C   UNL     1      35.077  15.113   9.278  1.00  0.00     0.010 A 
ATOM     16  O   UNL     1      33.939  16.771   7.918  1.00  0.00    -0.423 OA
ATOM     17  O   UNL     1      31.693  16.782   7.819  1.00  0.00    -0.246 OA
ATOM     18  C   UNL     1      36.323  14.646   9.743  1.00  0.00     0.011 A 
ATOM     19  C   UNL     1      35.107  16.216   8.437  1.00  0.00     0.137 A 
ATOM     20  C   UNL     1      37.528  15.261   9.379  1.00  0.00     0.001 A 
ATOM     21  C   UNL     1      36.300  16.847   8.060  1.00  0.00     0.048 A 
ATOM     22  C   UNL     1      37.516  16.366   8.534  1.00  0.00     0.004 A 
ATOM     23  O   UNL     1      33.827  13.424  10.410  1.00  0.00    -0.872 OA
ENDBRANCH   5  12
ENDBRANCH   1   5
TORSDOF 4
ENDMDL
MODEL 2
REMARK VINA RESULT:    -8.070      1.118      1.311
REMARK INTER + INTRA:         -10.820
REMARK INTER:                  -9.842
REMARK INTRA:                  -0.977
REMARK UNBOUND:                -0.863
REMARK SMILES CC(=O)C[C@H](c1ccccc1)c1c([O-])c2ccccc2oc1=O
REMARK SMILES IDX 4 1 2 2 3 3 1 4 5 5 6 6 7 7 11 8 8 9 10 10 9 11 12 12 13 13
REMARK SMILES IDX 22 14 15 15 21 16 23 17 16 18 20 19 17 20 19 21 18 22 14 23
REMARK H PARENT
ROOT
ATOM      1  C   UNL     1      30.136  13.691  11.254  1.00  0.00     0.088 C 
ENDROOT
BRANCH   1   2
ATOM      2  C   UNL     1      28.699  14.046  11.567  1.00  0.00     0.130 C 
ATOM      3  O   UNL     1      28.317  15.222  11.542  1.00  0.00    -0.300 OA
ATOM      4  C   UNL     1      27.742  12.943  11.929  1.00  0.00     0.087 C 
ENDBRANCH   1   2
BRANCH   1   5
ATOM      5  C   UNL     1      30.449  13.822   9.748  1.00  0.00     0.063 C 
BRANCH   5   6
ATOM      6  C   UNL     1      30.305  12.455   9.065  1.00  0.00    -0.040 A 
ATOM      7  C   UNL     1      30.366  11.263   9.805  1.00  0.00     0.004 A 
ATOM      8  C   UNL     1      30.116  12.373   7.677  1.00  0.00     0.004 A 
ATOM      9  C   UNL     1      30.229  10.025   9.175  1.00  0.00     0.000 A 
ATOM     10  C   UNL     1      29.977  11.134   7.048  1.00  0.00     0.000 A 
ATOM     11  C   UNL     1      30.032   9.961   7.798  1.00  0.00     0.000 A 
ENDBRANCH   5   6
BRANCH   5  12
ATOM     12  C   UNL     1      31.747  14.535   9.307  1.00  0.00     0.038 A 
ATOM     13  C   UNL     1      33.004  14.196   9.715  1.00  0.00    -0.086 A 
ATOM     14  C   UNL     1      31.460  15.664   8.365  1.00  0.00     0.339 A 
ATOM     15  C   UNL     1      34.097  15.056   9.143  1.00  0.00     0.010 A 
ATOM     16  O   UNL     1      32.523  16.386   7.858  1.00  0.00    -0.423 OA
ATOM     17  O   UNL     1      30.318  15.982   8.032  1.00  0.00    -0.246 OA
ATOM     18  C   UNL     1      35.452  14.856   9.473  1.00  0.00     0.011 A 
ATOM     19  C   UNL     1      33.825  16.088   8.255  1.00  0.00     0.137 A 
ATOM     20  C   UNL     1      36.472  15.653   8.939  1.00  0.00     0.001 A 
ATOM     21  C   UNL     1      34.828  16.897   7.708  1.00  0.00     0.048 A 
ATOM     22  C   UNL     1      36.159  16.678   8.052  1.00  0.00     0.004 A 
ATOM     23  O   UNL     1      33.320  13.248  10.494  1.00  0.00    -0.872 OA
ENDBRANCH   5  12
ENDBRANCH   1   5
TORSDOF 4
ENDMDL
MODEL 3
REMARK VINA RESULT:    -7.961      0.673      2.055
REMARK INTER + INTRA:         -10.686
REMARK INTER:                 -10.565
REMARK INTRA:                  -0.120
REMARK UNBOUND:                -0.863
REMARK SMILES CC(=O)C[C@H](c1ccccc1)c1c([O-])c2ccccc2oc1=O
REMARK SMILES IDX 4 1 2 2 3 3 1 4 5 5 6 6 7 7 11 8 8 9 10 10 9 11 12 12 13 13
REMARK SMILES IDX 22 14 15 15 21 16 23 17 16 18 20 19 17 20 19 21 18 22 14 23
REMARK H PARENT
ROOT
ATOM      1  C   UNL     1      30.557  13.907  10.972  1.00  0.00     0.088 C 
ENDROOT
BRANCH   1   2
ATOM      2  C   UNL     1      29.044  13.859  10.960  1.00  0.00     0.130 C 
ATOM      3  O   UNL     1      28.382  14.850  10.630  1.00  0.00    -0.300 OA
ATOM      4  C   UNL     1      28.356  12.588  11.375  1.00  0.00     0.087 C 
ENDBRANCH   1   2
BRANCH   1   5
ATOM      5  C   UNL     1      31.135  14.270   9.588  1.00  0.00     0.063 C 
BRANCH   5   6
ATOM      6  C   UNL     1      30.736  13.201   8.560  1.00  0.00    -0.040 A 
ATOM      7  C   UNL     1      31.121  11.860   8.721  1.00  0.00     0.004 A 
ATOM      8  C   UNL     1      29.981  13.551   7.431  1.00  0.00     0.004 A 
ATOM      9  C   UNL     1      30.750  10.895   7.784  1.00  0.00     0.000 A 
ATOM     10  C   UNL     1      29.609  12.584   6.494  1.00  0.00     0.000 A 
ATOM     11  C   UNL     1      29.992  11.256   6.672  1.00  0.00     0.000 A 
ENDBRANCH   5   6
BRANCH   5  12
ATOM     12  C   UNL     1      32.631  14.633   9.466  1.00  0.00     0.038 A 
ATOM     13  C   UNL     1      33.150  15.536   8.585  1.00  0.00    -0.086 A 
ATOM     14  C   UNL     1      33.465  13.861  10.444  1.00  0.00     0.339 A 
ATOM     15  C   UNL     1      34.642  15.699   8.665  1.00  0.00     0.010 A 
ATOM     16  O   UNL     1      34.826  14.093  10.476  1.00  0.00    -0.423 OA
ATOM     17  O   UNL     1      32.989  13.023  11.210  1.00  0.00    -0.246 OA
ATOM     18  C   UNL     1      35.342  16.577   7.814  1.00  0.00     0.011 A 
ATOM     19  C   UNL     1      35.405  14.995   9.587  1.00  0.00     0.137 A 
ATOM     20  C   UNL     1      36.732  16.734   7.890  1.00  0.00     0.001 A 
ATOM     21  C   UNL     1      36.795  15.135   9.681  1.00  0.00     0.048 A 
ATOM     22  C   UNL     1      37.462  16.010   8.828  1.00  0.00     0.004 A 
ATOM     23  O   UNL     1      32.505  16.232   7.744  1.00  0.00    -0.872 OA
ENDBRANCH   5  12
ENDBRANCH   1   5
TORSDOF 4
ENDMDL
MODEL 4
REMARK VINA RESULT:    -7.593      1.946      3.049
REMARK INTER + INTRA:         -10.232
REMARK INTER:                  -9.486
REMARK INTRA:                  -0.746
REMARK UNBOUND:                -0.863
REMARK SMILES CC(=O)C[C@H](c1ccccc1)c1c([O-])c2ccccc2oc1=O
REMARK SMILES IDX 4 1 2 2 3 3 1 4 5 5 6 6 7 7 11 8 8 9 10 10 9 11 12 12 13 13
REMARK SMILES IDX 22 14 15 15 21 16 23 17 16 18 20 19 17 20 19 21 18 22 14 23
REMARK H PARENT
ROOT
ATOM      1  C   UNL     1      32.005  12.886  12.171  1.00  0.00     0.088 C 
ENDROOT
BRANCH   1   2
ATOM      2  C   UNL     1      31.527  13.605  13.413  1.00  0.00     0.130 C 
ATOM      3  O   UNL     1      32.231  13.652  14.429  1.00  0.00    -0.300 OA
ATOM      4  C   UNL     1      30.168  14.250  13.400  1.00  0.00     0.087 C 
ENDBRANCH   1   2
BRANCH   1   5
ATOM      5  C   UNL     1      31.141  13.224  10.938  1.00  0.00     0.063 C 
BRANCH   5   6
ATOM      6  C   UNL     1      30.735  11.931  10.215  1.00  0.00    -0.040 A 
ATOM      7  C   UNL     1      30.318  10.799  10.933  1.00  0.00     0.004 A 
ATOM      8  C   UNL     1      30.781  11.858   8.815  1.00  0.00     0.004 A 
ATOM      9  C   UNL     1      29.947   9.630  10.267  1.00  0.00     0.000 A 
ATOM     10  C   UNL     1      30.408  10.688   8.150  1.00  0.00     0.000 A 
ATOM     11  C   UNL     1      29.989   9.576   8.876  1.00  0.00     0.000 A 
ENDBRANCH   5   6
BRANCH   5  12
ATOM     12  C   UNL     1      31.638  14.292   9.938  1.00  0.00     0.038 A 
ATOM     13  C   UNL     1      32.911  14.381   9.455  1.00  0.00    -0.086 A 
ATOM     14  C   UNL     1      30.542  15.239   9.555  1.00  0.00     0.339 A 
ATOM     15  C   UNL     1      33.136  15.519   8.499  1.00  0.00     0.010 A 
ATOM     16  O   UNL     1      30.823  16.239   8.646  1.00  0.00    -0.423 OA
ATOM     17  O   UNL     1      29.406  15.169  10.026  1.00  0.00    -0.246 OA
ATOM     18  C   UNL     1      34.397  15.767   7.921  1.00  0.00     0.011 A 
ATOM     19  C   UNL     1      32.111  16.380   8.135  1.00  0.00     0.137 A 
ATOM     20  C   UNL     1      34.609  16.824   7.027  1.00  0.00     0.001 A 
ATOM     21  C   UNL     1      32.299  17.443   7.243  1.00  0.00     0.048 A 
ATOM     22  C   UNL     1      33.555  17.666   6.686  1.00  0.00     0.004 A 
ATOM     23  O   UNL     1      33.880  13.609   9.723  1.00  0.00    -0.872 OA
ENDBRANCH   5  12
ENDBRANCH   1   5
TORSDOF 4
ENDMDL
MODEL 5
REMARK VINA RESULT:    -7.576      2.001      5.325
REMARK INTER + INTRA:         -10.211
REMARK INTER:                  -9.218
REMARK INTRA:                  -0.993
REMARK UNBOUND:                -0.863
REMARK SMILES CC(=O)C[C@H](c1ccccc1)c1c([O-])c2ccccc2oc1=O
REMARK SMILES IDX 4 1 2 2 3 3 1 4 5 5 6 6 7 7 11 8 8 9 10 10 9 11 12 12 13 13
REMARK SMILES IDX 22 14 15 15 21 16 23 17 16 18 20 19 17 20 19 21 18 22 14 23
REMARK H PARENT
ROOT
ATOM      1  C   UNL     1      31.228  15.897   8.553  1.00  0.00     0.088 C 
ENDROOT
BRANCH   1   2
ATOM      2  C   UNL     1      32.421  16.629   7.977  1.00  0.00     0.130 C 
ATOM      3  O   UNL     1      32.301  17.769   7.513  1.00  0.00    -0.300 OA
ATOM      4  C   UNL     1      33.757  15.938   7.960  1.00  0.00     0.087 C 
ENDBRANCH   1   2
BRANCH   1   5
ATOM      5  C   UNL     1      31.612  14.503   9.095  1.00  0.00     0.063 C 
BRANCH   5   6
ATOM      6  C   UNL     1      30.948  13.412   8.242  1.00  0.00    -0.040 A 
ATOM      7  C   UNL     1      31.334  12.067   8.354  1.00  0.00     0.004 A 
ATOM      8  C   UNL     1      29.941  13.746   7.323  1.00  0.00     0.004 A 
ATOM      9  C   UNL     1      30.722  11.083   7.578  1.00  0.00     0.000 A 
ATOM     10  C   UNL     1      29.328  12.760   6.548  1.00  0.00     0.000 A 
ATOM     11  C   UNL     1      29.717  11.428   6.677  1.00  0.00     0.000 A 
ENDBRANCH   5   6
BRANCH   5  12
ATOM     12  C   UNL     1      31.452  14.210  10.603  1.00  0.00     0.038 A 
ATOM     13  C   UNL     1      30.316  14.425  11.327  1.00  0.00    -0.086 A 
ATOM     14  C   UNL     1      32.714  13.655  11.191  1.00  0.00     0.339 A 
ATOM     15  C   UNL     1      30.427  14.062  12.781  1.00  0.00     0.010 A 
ATOM     16  O   UNL     1      32.723  13.316  12.529  1.00  0.00    -0.423 OA
ATOM     17  O   UNL     1      33.744  13.498  10.534  1.00  0.00    -0.246 OA
ATOM     18  C   UNL     1      29.353  14.239  13.677  1.00  0.00     0.011 A 
ATOM     19  C   UNL     1      31.593  13.530  13.315  1.00  0.00     0.137 A 
ATOM     20  C   UNL     1      29.452  13.897  15.032  1.00  0.00     0.001 A 
ATOM     21  C   UNL     1      31.715  13.182  14.666  1.00  0.00     0.048 A 
ATOM     22  C   UNL     1      30.639  13.366  15.528  1.00  0.00     0.004 A 
ATOM     23  O   UNL     1      29.214  14.876  10.894  1.00  0.00    -0.872 OA
ENDBRANCH   5  12
ENDBRANCH   1   5
TORSDOF 4
ENDMDL
MODEL 6
REMARK VINA RESULT:    -7.388      4.582      7.301
REMARK INTER + INTRA:          -9.978
REMARK INTER:                  -8.994
REMARK INTRA:                  -0.985
REMARK UNBOUND:                -0.863
REMARK SMILES CC(=O)C[C@H](c1ccccc1)c1c([O-])c2ccccc2oc1=O
REMARK SMILES IDX 4 1 2 2 3 3 1 4 5 5 6 6 7 7 11 8 8 9 10 10 9 11 12 12 13 13
REMARK SMILES IDX 22 14 15 15 21 16 23 17 16 18 20 19 17 20 19 21 18 22 14 23
REMARK H PARENT
ROOT
ATOM      1  C   UNL     1      29.940   9.586  14.159  1.00  0.00     0.088 C 
ENDROOT
BRANCH   1   2
ATOM      2  C   UNL     1      30.793  10.259  15.213  1.00  0.00     0.130 C 
ATOM      3  O   UNL     1      31.989   9.972  15.337  1.00  0.00    -0.300 OA
ATOM      4  C   UNL     1      30.155  11.272  16.122  1.00  0.00     0.087 C 
ENDBRANCH   1   2
BRANCH   1   5
ATOM      5  C   UNL     1      28.992  10.583  13.460  1.00  0.00     0.063 C 
BRANCH   5   6
ATOM      6  C   UNL     1      27.534  10.143  13.660  1.00  0.00    -0.040 A 
ATOM      7  C   UNL     1      26.491  11.081  13.700  1.00  0.00     0.004 A 
ATOM      8  C   UNL     1      27.220   8.784  13.815  1.00  0.00     0.004 A 
ATOM      9  C   UNL     1      25.169  10.670  13.879  1.00  0.00     0.000 A 
ATOM     10  C   UNL     1      25.896   8.374  13.991  1.00  0.00     0.000 A 
ATOM     11  C   UNL     1      24.872   9.317  14.021  1.00  0.00     0.000 A 
ENDBRANCH   5   6
BRANCH   5  12
ATOM     12  C   UNL     1      29.260  10.978  11.991  1.00  0.00     0.038 A 
ATOM     13  C   UNL     1      29.451  10.098  10.965  1.00  0.00    -0.086 A 
ATOM     14  C   UNL     1      29.293  12.466  11.819  1.00  0.00     0.339 A 
ATOM     15  C   UNL     1      29.703  10.743   9.631  1.00  0.00     0.010 A 
ATOM     16  O   UNL     1      29.499  12.979  10.554  1.00  0.00    -0.423 OA
ATOM     17  O   UNL     1      29.156  13.249  12.759  1.00  0.00    -0.246 OA
ATOM     18  C   UNL     1      29.938   9.981   8.469  1.00  0.00     0.011 A 
ATOM     19  C   UNL     1      29.713  12.122   9.476  1.00  0.00     0.137 A 
ATOM     20  C   UNL     1      30.169  10.579   7.224  1.00  0.00     0.001 A 
ATOM     21  C   UNL     1      29.941  12.742   8.242  1.00  0.00     0.048 A 
ATOM     22  C   UNL     1      30.171  11.966   7.110  1.00  0.00     0.004 A 
ATOM     23  O   UNL     1      29.422   8.833  11.035  1.00  0.00    -0.872 OA
ENDBRANCH   5  12
ENDBRANCH   1   5
TORSDOF 4
ENDMDL
MODEL 7
REMARK VINA RESULT:    -7.365      3.091      7.832
REMARK INTER + INTRA:          -9.951
REMARK INTER:                  -9.005
REMARK INTRA:                  -0.945
REMARK UNBOUND:                -0.863
REMARK SMILES CC(=O)C[C@H](c1ccccc1)c1c([O-])c2ccccc2oc1=O
REMARK SMILES IDX 4 1 2 2 3 3 1 4 5 5 6 6 7 7 11 8 8 9 10 10 9 11 12 12 13 13
REMARK SMILES IDX 22 14 15 15 21 16 23 17 16 18 20 19 17 20 19 21 18 22 14 23
REMARK H PARENT
ROOT
ATOM      1  C   UNL     1      31.044  13.294  11.286  1.00  0.00     0.088 C 
ENDROOT
BRANCH   1   2
ATOM      2  C   UNL     1      32.555  13.277  11.224  1.00  0.00     0.130 C 
ATOM      3  O   UNL     1      33.225  12.903  12.194  1.00  0.00    -0.300 OA
ATOM      4  C   UNL     1      33.235  13.742   9.965  1.00  0.00     0.087 C 
ENDBRANCH   1   2
BRANCH   1   5
ATOM      5  C   UNL     1      30.429  11.975  10.772  1.00  0.00     0.063 C 
BRANCH   5   6
ATOM      6  C   UNL     1      30.108  12.098   9.275  1.00  0.00    -0.040 A 
ATOM      7  C   UNL     1      29.608  13.294   8.736  1.00  0.00     0.004 A 
ATOM      8  C   UNL     1      30.303  11.006   8.416  1.00  0.00     0.004 A 
ATOM      9  C   UNL     1      29.323  13.398   7.374  1.00  0.00     0.000 A 
ATOM     10  C   UNL     1      30.019  11.111   7.053  1.00  0.00     0.000 A 
ATOM     11  C   UNL     1      29.531  12.308   6.532  1.00  0.00     0.000 A 
ENDBRANCH   5   6
BRANCH   5  12
ATOM     12  C   UNL     1      29.254  11.338  11.546  1.00  0.00     0.038 A 
ATOM     13  C   UNL     1      28.115  11.990  11.917  1.00  0.00    -0.086 A 
ATOM     14  C   UNL     1      29.516   9.894  11.852  1.00  0.00     0.339 A 
ATOM     15  C   UNL     1      27.129  11.142  12.671  1.00  0.00     0.010 A 
ATOM     16  O   UNL     1      28.545   9.175  12.520  1.00  0.00    -0.423 OA
ATOM     17  O   UNL     1      30.564   9.326  11.542  1.00  0.00    -0.246 OA
ATOM     18  C   UNL     1      25.908  11.662  13.145  1.00  0.00     0.011 A 
ATOM     19  C   UNL     1      27.370   9.800  12.933  1.00  0.00     0.137 A 
ATOM     20  C   UNL     1      24.986  10.873  13.843  1.00  0.00     0.001 A 
ATOM     21  C   UNL     1      26.463   8.992  13.629  1.00  0.00     0.048 A 
ATOM     22  C   UNL     1      25.264   9.531  14.086  1.00  0.00     0.004 A 
ATOM     23  O   UNL     1      27.821  13.201  11.681  1.00  0.00    -0.872 OA
ENDBRANCH   5  12
ENDBRANCH   1   5
TORSDOF 4
ENDMDL
MODEL 8
REMARK VINA RESULT:    -7.277      1.830      4.224
REMARK INTER + INTRA:          -9.842
REMARK INTER:                  -8.832
REMARK INTRA:                  -1.010
REMARK UNBOUND:                -0.863
REMARK SMILES CC(=O)C[C@H](c1ccccc1)c1c([O-])c2ccccc2oc1=O
REMARK SMILES IDX 4 1 2 2 3 3 1 4 5 5 6 6 7 7 11 8 8 9 10 10 9 11 12 12 13 13
REMARK SMILES IDX 22 14 15 15 21 16 23 17 16 18 20 19 17 20 19 21 18 22 14 23
REMARK H PARENT
ROOT
ATOM      1  C   UNL     1      29.617  11.902   9.096  1.00  0.00     0.088 C 
ENDROOT
BRANCH   1   2
ATOM      2  C   UNL     1      30.484  10.702   8.782  1.00  0.00     0.130 C 
ATOM      3  O   UNL     1      30.619   9.787   9.603  1.00  0.00    -0.300 OA
ATOM      4  C   UNL     1      31.197  10.648   7.459  1.00  0.00     0.087 C 
ENDBRANCH   1   2
BRANCH   1   5
ATOM      5  C   UNL     1      30.303  12.867  10.086  1.00  0.00     0.063 C 
BRANCH   5   6
ATOM      6  C   UNL     1      29.241  13.696  10.825  1.00  0.00    -0.040 A 
ATOM      7  C   UNL     1      29.510  14.270  12.077  1.00  0.00     0.004 A 
ATOM      8  C   UNL     1      27.972  13.887  10.259  1.00  0.00     0.004 A 
ATOM      9  C   UNL     1      28.540  15.025  12.739  1.00  0.00     0.000 A 
ATOM     10  C   UNL     1      27.003  14.644  10.921  1.00  0.00     0.000 A 
ATOM     11  C   UNL     1      27.288  15.214  12.159  1.00  0.00     0.000 A 
ENDBRANCH   5   6
BRANCH   5  12
ATOM     12  C   UNL     1      31.463  13.758   9.591  1.00  0.00     0.038 A 
ATOM     13  C   UNL     1      31.399  14.608   8.526  1.00  0.00    -0.086 A 
ATOM     14  C   UNL     1      32.693  13.574  10.428  1.00  0.00     0.339 A 
ATOM     15  C   UNL     1      32.673  15.356   8.248  1.00  0.00     0.010 A 
ATOM     16  O   UNL     1      33.813  14.323  10.126  1.00  0.00    -0.423 OA
ATOM     17  O   UNL     1      32.749  12.777  11.365  1.00  0.00    -0.246 OA
ATOM     18  C   UNL     1      32.786  16.261   7.174  1.00  0.00     0.011 A 
ATOM     19  C   UNL     1      33.802  15.195   9.040  1.00  0.00     0.137 A 
ATOM     20  C   UNL     1      33.971  16.961   6.915  1.00  0.00     0.001 A 
ATOM     21  C   UNL     1      34.997  15.885   8.800  1.00  0.00     0.048 A 
ATOM     22  C   UNL     1      35.081  16.773   7.733  1.00  0.00     0.004 A 
ATOM     23  O   UNL     1      30.392  14.824   7.786  1.00  0.00    -0.872 OA
ENDBRANCH   5  12
ENDBRANCH   1   5
TORSDOF 4
ENDMDL
MODEL 9
REMARK VINA RESULT:    -7.248      2.221      6.516
REMARK INTER + INTRA:          -9.806
REMARK INTER:                  -8.964
REMARK INTRA:                  -0.842
REMARK UNBOUND:                -0.863
REMARK SMILES CC(=O)C[C@H](c1ccccc1)c1c([O-])c2ccccc2oc1=O
REMARK SMILES IDX 4 1 2 2 3 3 1 4 5 5 6 6 7 7 11 8 8 9 10 10 9 11 12 12 13 13
REMARK SMILES IDX 22 14 15 15 21 16 23 17 16 18 20 19 17 20 19 21 18 22 14 23
REMARK H PARENT
ROOT
ATOM      1  C   UNL     1      31.343  14.768   8.181  1.00  0.00     0.088 C 
ENDROOT
BRANCH   1   2
ATOM      2  C   UNL     1      29.926  14.724   7.653  1.00  0.00     0.130 C 
ATOM      3  O   UNL     1      29.087  15.554   8.020  1.00  0.00    -0.300 OA
ATOM      4  C   UNL     1      29.547  13.638   6.684  1.00  0.00     0.087 C 
ENDBRANCH   1   2
BRANCH   1   5
ATOM      5  C   UNL     1      31.434  14.258   9.636  1.00  0.00     0.063 C 
BRANCH   5   6
ATOM      6  C   UNL     1      32.907  14.125  10.050  1.00  0.00    -0.040 A 
ATOM      7  C   UNL     1      33.926  14.762   9.324  1.00  0.00     0.004 A 
ATOM      8  C   UNL     1      33.262  13.352  11.166  1.00  0.00     0.004 A 
ATOM      9  C   UNL     1      35.261  14.638   9.710  1.00  0.00     0.000 A 
ATOM     10  C   UNL     1      34.598  13.230  11.552  1.00  0.00     0.000 A 
ATOM     11  C   UNL     1      35.597  13.874  10.826  1.00  0.00     0.000 A 
ENDBRANCH   5   6
BRANCH   5  12
ATOM     12  C   UNL     1      30.621  13.012  10.051  1.00  0.00     0.038 A 
ATOM     13  C   UNL     1      30.716  11.784   9.465  1.00  0.00    -0.086 A 
ATOM     14  C   UNL     1      29.694  13.316  11.189  1.00  0.00     0.339 A 
ATOM     15  C   UNL     1      29.807  10.742  10.054  1.00  0.00     0.010 A 
ATOM     16  O   UNL     1      28.914  12.294  11.693  1.00  0.00    -0.423 OA
ATOM     17  O   UNL     1      29.592  14.438  11.685  1.00  0.00    -0.246 OA
ATOM     18  C   UNL     1      29.764   9.424   9.556  1.00  0.00     0.011 A 
ATOM     19  C   UNL     1      28.965  11.025  11.121  1.00  0.00     0.137 A 
ATOM     20  C   UNL     1      28.920   8.450  10.105  1.00  0.00     0.001 A 
ATOM     21  C   UNL     1      28.114  10.068  11.686  1.00  0.00     0.048 A 
ATOM     22  C   UNL     1      28.092   8.773  11.175  1.00  0.00     0.004 A 
ATOM     23  O   UNL     1      31.485  11.454   8.513  1.00  0.00    -0.872 OA
ENDBRANCH   5  12
ENDBRANCH   1   5
TORSDOF 4
ENDMDL
MODEL 10
REMARK VINA RESULT:    -7.247      4.623      7.301
REMARK INTER + INTRA:          -9.805
REMARK INTER:                  -8.831
REMARK INTRA:                  -0.974
REMARK UNBOUND:                -0.863
REMARK SMILES CC(=O)C[C@H](c1ccccc1)c1c([O-])c2ccccc2oc1=O
REMARK SMILES IDX 4 1 2 2 3 3 1 4 5 5 6 6 7 7 11 8 8 9 10 10 9 11 12 12 13 13
REMARK SMILES IDX 22 14 15 15 21 16 23 17 16 18 20 19 17 20 19 21 18 22 14 23
REMARK H PARENT
ROOT
ATOM      1  C   UNL     1      27.383   9.494  13.016  1.00  0.00     0.088 C 
ENDROOT
BRANCH   1   2
ATOM      2  C   UNL     1      26.770   8.180  12.582  1.00  0.00     0.130 C 
ATOM      3  O   UNL     1      26.494   7.306  13.412  1.00  0.00    -0.300 OA
ATOM      4  C   UNL     1      26.518   7.946  11.118  1.00  0.00     0.087 C 
ENDBRANCH   1   2
BRANCH   1   5
ATOM      5  C   UNL     1      28.849   9.629  12.551  1.00  0.00     0.063 C 
BRANCH   5   6
ATOM      6  C   UNL     1      29.739  10.018  13.741  1.00  0.00    -0.040 A 
ATOM      7  C   UNL     1      31.087   9.632  13.796  1.00  0.00     0.004 A 
ATOM      8  C   UNL     1      29.212  10.766  14.805  1.00  0.00     0.004 A 
ATOM      9  C   UNL     1      31.889   9.994  14.880  1.00  0.00     0.000 A 
ATOM     10  C   UNL     1      30.015  11.129  15.888  1.00  0.00     0.000 A 
ATOM     11  C   UNL     1      31.354  10.745  15.924  1.00  0.00     0.000 A 
ENDBRANCH   5   6
BRANCH   5  12
ATOM     12  C   UNL     1      29.170  10.488  11.308  1.00  0.00     0.038 A 
ATOM     13  C   UNL     1      28.828  11.800  11.151  1.00  0.00    -0.086 A 
ATOM     14  C   UNL     1      29.910   9.698  10.271  1.00  0.00     0.339 A 
ATOM     15  C   UNL     1      29.252  12.402   9.841  1.00  0.00     0.010 A 
ATOM     16  O   UNL     1      30.293  10.335   9.107  1.00  0.00    -0.423 OA
ATOM     17  O   UNL     1      30.181   8.505  10.409  1.00  0.00    -0.246 OA
ATOM     18  C   UNL     1      28.964  13.741   9.509  1.00  0.00     0.011 A 
ATOM     19  C   UNL     1      29.955  11.670   8.894  1.00  0.00     0.137 A 
ATOM     20  C   UNL     1      29.361  14.305   8.290  1.00  0.00     0.001 A 
ATOM     21  C   UNL     1      30.363  12.213   7.670  1.00  0.00     0.048 A 
ATOM     22  C   UNL     1      30.065  13.538   7.367  1.00  0.00     0.004 A 
ATOM     23  O   UNL     1      28.218  12.530  11.989  1.00  0.00    -0.872 OA
ENDBRANCH   5  12
ENDBRANCH   1   5
TORSDOF 4
ENDMDL
MODEL 11
REMARK VINA RESULT:    -7.239      6.487      9.283
REMARK INTER + INTRA:          -9.795
REMARK INTER:                  -8.883
REMARK INTRA:                  -0.912
REMARK UNBOUND:                -0.863
REMARK SMILES CC(=O)C[C@H](c1ccccc1)c1c([O-])c2ccccc2oc1=O
REMARK SMILES IDX 4 1 2 2 3 3 1 4 5 5 6 6 7 7 11 8 8 9 10 10 9 11 12 12 13 13
REMARK SMILES IDX 22 14 15 15 21 16 23 17 16 18 20 19 17 20 19 21 18 22 14 23
REMARK H PARENT
ROOT
ATOM      1  C   UNL     1      27.697  13.240  13.034  1.00  0.00     0.088 C 
ENDROOT
BRANCH   1   2
ATOM      2  C   UNL     1      26.332  13.873  13.194  1.00  0.00     0.130 C 
ATOM      3  O   UNL     1      25.979  14.352  14.278  1.00  0.00    -0.300 OA
ATOM      4  C   UNL     1      25.400  13.894  12.014  1.00  0.00     0.087 C 
ENDBRANCH   1   2
BRANCH   1   5
ATOM      5  C   UNL     1      27.762  11.836  13.674  1.00  0.00     0.063 C 
BRANCH   5   6
ATOM      6  C   UNL     1      29.152  11.605  14.283  1.00  0.00    -0.040 A 
ATOM      7  C   UNL     1      30.203  12.509  14.060  1.00  0.00     0.004 A 
ATOM      8  C   UNL     1      29.400  10.472  15.074  1.00  0.00     0.004 A 
ATOM      9  C   UNL     1      31.462  12.292  14.621  1.00  0.00     0.000 A 
ATOM     10  C   UNL     1      30.660  10.257  15.636  1.00  0.00     0.000 A 
ATOM     11  C   UNL     1      31.689  11.168  15.411  1.00  0.00     0.000 A 
ENDBRANCH   5   6
BRANCH   5  12
ATOM     12  C   UNL     1      27.299  10.611  12.854  1.00  0.00     0.038 A 
ATOM     13  C   UNL     1      28.006  10.034  11.840  1.00  0.00    -0.086 A 
ATOM     14  C   UNL     1      25.956  10.124  13.306  1.00  0.00     0.339 A 
ATOM     15  C   UNL     1      27.327   8.857  11.199  1.00  0.00     0.010 A 
ATOM     16  O   UNL     1      25.414   9.015  12.686  1.00  0.00    -0.423 OA
ATOM     17  O   UNL     1      25.311  10.675  14.199  1.00  0.00    -0.246 OA
ATOM     18  C   UNL     1      27.910   8.155  10.124  1.00  0.00     0.011 A 
ATOM     19  C   UNL     1      26.092   8.399  11.636  1.00  0.00     0.137 A 
ATOM     20  C   UNL     1      27.280   7.056   9.528  1.00  0.00     0.001 A 
ATOM     21  C   UNL     1      25.444   7.302  11.055  1.00  0.00     0.048 A 
ATOM     22  C   UNL     1      26.042   6.627   9.995  1.00  0.00     0.004 A 
ATOM     23  O   UNL     1      29.149  10.383  11.417  1.00  0.00    -0.872 OA
ENDBRANCH   5  12
ENDBRANCH   1   5
TORSDOF 4
ENDMDL
MODEL 12
REMARK VINA RESULT:    -7.237      2.233      4.766
REMARK INTER + INTRA:          -9.792
REMARK INTER:                  -9.384
REMARK INTRA:                  -0.408
REMARK UNBOUND:                -0.863
REMARK SMILES CC(=O)C[C@H](c1ccccc1)c1c([O-])c2ccccc2oc1=O
REMARK SMILES IDX 4 1 2 2 3 3 1 4 5 5 6 6 7 7 11 8 8 9 10 10 9 11 12 12 13 13
REMARK SMILES IDX 22 14 15 15 21 16 23 17 16 18 20 19 17 20 19 21 18 22 14 23
REMARK H PARENT
ROOT
ATOM      1  C   UNL     1      31.312  15.910   8.539  1.00  0.00     0.088 C 
ENDROOT
BRANCH   1   2
ATOM      2  C   UNL     1      32.438  16.724   7.940  1.00  0.00     0.130 C 
ATOM      3  O   UNL     1      32.208  17.790   7.357  1.00  0.00    -0.300 OA
ATOM      4  C   UNL     1      33.846  16.205   8.047  1.00  0.00     0.087 C 
ENDBRANCH   1   2
BRANCH   1   5
ATOM      5  C   UNL     1      31.777  14.496   8.951  1.00  0.00     0.063 C 
BRANCH   5   6
ATOM      6  C   UNL     1      31.013  13.440   8.139  1.00  0.00    -0.040 A 
ATOM      7  C   UNL     1      30.003  13.808   7.237  1.00  0.00     0.004 A 
ATOM      8  C   UNL     1      31.311  12.077   8.292  1.00  0.00     0.004 A 
ATOM      9  C   UNL     1      29.317  12.841   6.501  1.00  0.00     0.000 A 
ATOM     10  C   UNL     1      30.626  11.110   7.553  1.00  0.00     0.000 A 
ATOM     11  C   UNL     1      29.631  11.493   6.657  1.00  0.00     0.000 A 
ENDBRANCH   5   6
BRANCH   5  12
ATOM     12  C   UNL     1      31.825  14.124  10.449  1.00  0.00     0.038 A 
ATOM     13  C   UNL     1      32.898  13.573  11.086  1.00  0.00    -0.086 A 
ATOM     14  C   UNL     1      30.529  14.439  11.135  1.00  0.00     0.339 A 
ATOM     15  C   UNL     1      32.681  13.299  12.548  1.00  0.00     0.010 A 
ATOM     16  O   UNL     1      30.422  14.186  12.488  1.00  0.00    -0.423 OA
ATOM     17  O   UNL     1      29.556  14.903  10.540  1.00  0.00    -0.246 OA
ATOM     18  C   UNL     1      33.680  12.715  13.353  1.00  0.00     0.011 A 
ATOM     19  C   UNL     1      31.485  13.611  13.180  1.00  0.00     0.137 A 
ATOM     20  C   UNL     1      33.481  12.462  14.716  1.00  0.00     0.001 A 
ATOM     21  C   UNL     1      31.264  13.367  14.541  1.00  0.00     0.048 A 
ATOM     22  C   UNL     1      32.268  12.790  15.313  1.00  0.00     0.004 A 
ATOM     23  O   UNL     1      34.024  13.296  10.575  1.00  0.00    -0.872 OA
ENDBRANCH   5  12
ENDBRANCH   1   5
TORSDOF 4
ENDMDL
MODEL 13
REMARK VINA RESULT:    -7.217      2.272      5.745
REMARK INTER + INTRA:          -9.768
REMARK INTER:                  -8.826
REMARK INTRA:                  -0.943
REMARK UNBOUND:                -0.863
REMARK SMILES CC(=O)C[C@H](c1ccccc1)c1c([O-])c2ccccc2oc1=O
REMARK SMILES IDX 4 1 2 2 3 3 1 4 5 5 6 6 7 7 11 8 8 9 10 10 9 11 12 12 13 13
REMARK SMILES IDX 22 14 15 15 21 16 23 17 16 18 20 19 17 20 19 21 18 22 14 23
REMARK H PARENT
ROOT
ATOM      1  C   UNL     1      31.491  12.541   8.541  1.00  0.00     0.088 C 
ENDROOT
BRANCH   1   2
ATOM      2  C   UNL     1      30.453  11.832   7.698  1.00  0.00     0.130 C 
ATOM      3  O   UNL     1      30.305  10.607   7.776  1.00  0.00    -0.300 OA
ATOM      4  C   UNL     1      29.616  12.641   6.746  1.00  0.00     0.087 C 
ENDBRANCH   1   2
BRANCH   1   5
ATOM      5  C   UNL     1      30.975  13.896   9.072  1.00  0.00     0.063 C 
BRANCH   5   6
ATOM      6  C   UNL     1      31.938  15.019   8.657  1.00  0.00    -0.040 A 
ATOM      7  C   UNL     1      33.329  14.857   8.759  1.00  0.00     0.004 A 
ATOM      8  C   UNL     1      31.438  16.237   8.172  1.00  0.00     0.004 A 
ATOM      9  C   UNL     1      34.195  15.882   8.376  1.00  0.00     0.000 A 
ATOM     10  C   UNL     1      32.306  17.261   7.788  1.00  0.00     0.000 A 
ATOM     11  C   UNL     1      33.684  17.082   7.887  1.00  0.00     0.000 A 
ENDBRANCH   5   6
BRANCH   5  12
ATOM     12  C   UNL     1      30.577  14.021  10.560  1.00  0.00     0.038 A 
ATOM     13  C   UNL     1      31.370  13.674  11.615  1.00  0.00    -0.086 A 
ATOM     14  C   UNL     1      29.193  14.574  10.713  1.00  0.00     0.339 A 
ATOM     15  C   UNL     1      30.740  13.887  12.963  1.00  0.00     0.010 A 
ATOM     16  O   UNL     1      28.700  14.770  11.988  1.00  0.00    -0.423 OA
ATOM     17  O   UNL     1      28.475  14.850   9.752  1.00  0.00    -0.246 OA
ATOM     18  C   UNL     1      31.413  13.563  14.158  1.00  0.00     0.011 A 
ATOM     19  C   UNL     1      29.465  14.417  13.097  1.00  0.00     0.137 A 
ATOM     20  C   UNL     1      30.830  13.765  15.416  1.00  0.00     0.001 A 
ATOM     21  C   UNL     1      28.862  14.628  14.344  1.00  0.00     0.048 A 
ATOM     22  C   UNL     1      29.549  14.299  15.509  1.00  0.00     0.004 A 
ATOM     23  O   UNL     1      32.551  13.216  11.559  1.00  0.00    -0.872 OA
ENDBRANCH   5  12
ENDBRANCH   1   5
TORSDOF 4
ENDMDL
MODEL 14
REMARK VINA RESULT:    -7.155      1.643      3.688
REMARK INTER + INTRA:          -9.692
REMARK INTER:                  -9.251
REMARK INTRA:                  -0.440
REMARK UNBOUND:                -0.863
REMARK SMILES CC(=O)C[C@H](c1ccccc1)c1c([O-])c2ccccc2oc1=O
REMARK SMILES IDX 4 1 2 2 3 3 1 4 5 5 6 6 7 7 11 8 8 9 10 10 9 11 12 12 13 13
REMARK SMILES IDX 22 14 15 15 21 16 23 17 16 18 20 19 17 20 19 21 18 22 14 23
REMARK H PARENT
ROOT
ATOM      1  C   UNL     1      29.050  13.133   8.070  1.00  0.00     0.088 C 
ENDROOT
BRANCH   1   2
ATOM      2  C   UNL     1      29.764  12.308   7.022  1.00  0.00     0.130 C 
ATOM      3  O   UNL     1      29.782  12.667   5.838  1.00  0.00    -0.300 OA
ATOM      4  C   UNL     1      30.437  11.030   7.439  1.00  0.00     0.087 C 
ENDBRANCH   1   2
BRANCH   1   5
ATOM      5  C   UNL     1      29.962  13.451   9.275  1.00  0.00     0.063 C 
BRANCH   5   6
ATOM      6  C   UNL     1      29.119  13.996  10.437  1.00  0.00    -0.040 A 
ATOM      7  C   UNL     1      27.737  14.200  10.298  1.00  0.00     0.004 A 
ATOM      8  C   UNL     1      29.723  14.309  11.664  1.00  0.00     0.004 A 
ATOM      9  C   UNL     1      26.979  14.693  11.362  1.00  0.00     0.000 A 
ATOM     10  C   UNL     1      28.963  14.800  12.728  1.00  0.00     0.000 A 
ATOM     11  C   UNL     1      27.591  14.989  12.577  1.00  0.00     0.000 A 
ENDBRANCH   5   6
BRANCH   5  12
ATOM     12  C   UNL     1      31.232  14.303   9.056  1.00  0.00     0.038 A 
ATOM     13  C   UNL     1      32.482  13.973   9.492  1.00  0.00    -0.086 A 
ATOM     14  C   UNL     1      30.926  15.560   8.300  1.00  0.00     0.339 A 
ATOM     15  C   UNL     1      33.545  14.981   9.155  1.00  0.00     0.010 A 
ATOM     16  O   UNL     1      31.965  16.419   8.002  1.00  0.00    -0.423 OA
ATOM     17  O   UNL     1      29.787  15.864   7.943  1.00  0.00    -0.246 OA
ATOM     18  C   UNL     1      34.888  14.806   9.546  1.00  0.00     0.011 A 
ATOM     19  C   UNL     1      33.257  16.133   8.438  1.00  0.00     0.137 A 
ATOM     20  C   UNL     1      35.881  15.741   9.230  1.00  0.00     0.001 A 
ATOM     21  C   UNL     1      34.234  17.082   8.110  1.00  0.00     0.048 A 
ATOM     22  C   UNL     1      35.552  16.885   8.509  1.00  0.00     0.004 A 
ATOM     23  O   UNL     1      32.814  12.924  10.122  1.00  0.00    -0.872 OA
ENDBRANCH   5  12
ENDBRANCH   1   5
TORSDOF 4
ENDMDL
MODEL 15
REMARK VINA RESULT:    -7.102      2.123      6.356
REMARK INTER + INTRA:          -9.625
REMARK INTER:                  -8.771
REMARK INTRA:                  -0.855
REMARK UNBOUND:                -0.863
REMARK SMILES CC(=O)C[C@H](c1ccccc1)c1c([O-])c2ccccc2oc1=O
REMARK SMILES IDX 4 1 2 2 3 3 1 4 5 5 6 6 7 7 11 8 8 9 10 10 9 11 12 12 13 13
REMARK SMILES IDX 22 14 15 15 21 16 23 17 16 18 20 19 17 20 19 21 18 22 14 23
REMARK H PARENT
ROOT
ATOM      1  C   UNL     1      31.265  11.815   8.121  1.00  0.00     0.088 C 
ENDROOT
BRANCH   1   2
ATOM      2  C   UNL     1      30.192  11.366   7.153  1.00  0.00     0.130 C 
ATOM      3  O   UNL     1      29.935  10.165   7.005  1.00  0.00    -0.300 OA
ATOM      4  C   UNL     1      29.453  12.406   6.356  1.00  0.00     0.087 C 
ENDBRANCH   1   2
BRANCH   1   5
ATOM      5  C   UNL     1      30.986  13.227   8.679  1.00  0.00     0.063 C 
BRANCH   5   6
ATOM      6  C   UNL     1      32.312  13.935   8.993  1.00  0.00    -0.040 A 
ATOM      7  C   UNL     1      33.217  13.402   9.925  1.00  0.00     0.004 A 
ATOM      8  C   UNL     1      32.641  15.139   8.353  1.00  0.00     0.004 A 
ATOM      9  C   UNL     1      34.421  14.051  10.200  1.00  0.00     0.000 A 
ATOM     10  C   UNL     1      33.847  15.787   8.628  1.00  0.00     0.000 A 
ATOM     11  C   UNL     1      34.738  15.241   9.550  1.00  0.00     0.000 A 
ENDBRANCH   5   6
BRANCH   5  12
ATOM     12  C   UNL     1      29.975  13.395   9.835  1.00  0.00     0.038 A 
ATOM     13  C   UNL     1      29.911  12.600  10.942  1.00  0.00    -0.086 A 
ATOM     14  C   UNL     1      29.051  14.549   9.593  1.00  0.00     0.339 A 
ATOM     15  C   UNL     1      28.828  12.973  11.915  1.00  0.00     0.010 A 
ATOM     16  O   UNL     1      28.102  14.846  10.551  1.00  0.00    -0.423 OA
ATOM     17  O   UNL     1      29.095  15.237   8.572  1.00  0.00    -0.246 OA
ATOM     18  C   UNL     1      28.610  12.246  13.103  1.00  0.00     0.011 A 
ATOM     19  C   UNL     1      27.988  14.056  11.693  1.00  0.00     0.137 A 
ATOM     20  C   UNL     1      27.604  12.594  14.012  1.00  0.00     0.001 A 
ATOM     21  C   UNL     1      26.975  14.422  12.588  1.00  0.00     0.048 A 
ATOM     22  C   UNL     1      26.783  13.687  13.754  1.00  0.00     0.004 A 
ATOM     23  O   UNL     1      30.667  11.620  11.218  1.00  0.00    -0.872 OA
ENDBRANCH   5  12
ENDBRANCH   1   5
TORSDOF 4
ENDMDL
MODEL 16
REMARK VINA RESULT:    -7.066      5.473      8.940
REMARK INTER + INTRA:          -9.582
REMARK INTER:                  -8.764
REMARK INTRA:                  -0.818
REMARK UNBOUND:                -0.863
REMARK SMILES CC(=O)C[C@H](c1ccccc1)c1c([O-])c2ccccc2oc1=O
REMARK SMILES IDX 4 1 2 2 3 3 1 4 5 5 6 6 7 7 11 8 8 9 10 10 9 11 12 12 13 13
REMARK SMILES IDX 22 14 15 15 21 16 23 17 16 18 20 19 17 20 19 21 18 22 14 23
REMARK H PARENT
ROOT
ATOM      1  C   UNL     1      29.802  12.514  11.775  1.00  0.00     0.088 C 
ENDROOT
BRANCH   1   2
ATOM      2  C   UNL     1      28.827  13.663  11.631  1.00  0.00     0.130 C 
ATOM      3  O   UNL     1      28.596  14.420  12.581  1.00  0.00    -0.300 OA
ATOM      4  C   UNL     1      28.126  13.858  10.315  1.00  0.00     0.087 C 
ENDBRANCH   1   2
BRANCH   1   5
ATOM      5  C   UNL     1      29.274  11.424  12.731  1.00  0.00     0.063 C 
BRANCH   5   6
ATOM      6  C   UNL     1      30.437  10.834  13.542  1.00  0.00    -0.040 A 
ATOM      7  C   UNL     1      30.345   9.559  14.123  1.00  0.00     0.004 A 
ATOM      8  C   UNL     1      31.619  11.568  13.722  1.00  0.00     0.004 A 
ATOM      9  C   UNL     1      31.409   9.030  14.854  1.00  0.00     0.000 A 
ATOM     10  C   UNL     1      32.684  11.037  14.452  1.00  0.00     0.000 A 
ATOM     11  C   UNL     1      32.579   9.767  15.016  1.00  0.00     0.000 A 
ENDBRANCH   5   6
BRANCH   5  12
ATOM     12  C   UNL     1      28.358  10.311  12.175  1.00  0.00     0.038 A 
ATOM     13  C   UNL     1      28.690   9.455  11.166  1.00  0.00    -0.086 A 
ATOM     14  C   UNL     1      27.036  10.283  12.881  1.00  0.00     0.339 A 
ATOM     15  C   UNL     1      27.614   8.468  10.808  1.00  0.00     0.010 A 
ATOM     16  O   UNL     1      26.114   9.324  12.513  1.00  0.00    -0.423 OA
ATOM     17  O   UNL     1      26.736  11.085  13.765  1.00  0.00    -0.246 OA
ATOM     18  C   UNL     1      27.784   7.523   9.776  1.00  0.00     0.011 A 
ATOM     19  C   UNL     1      26.400   8.436  11.479  1.00  0.00     0.137 A 
ATOM     20  C   UNL     1      26.784   6.601   9.443  1.00  0.00     0.001 A 
ATOM     21  C   UNL     1      25.386   7.522  11.163  1.00  0.00     0.048 A 
ATOM     22  C   UNL     1      25.580   6.600  10.140  1.00  0.00     0.004 A 
ATOM     23  O   UNL     1      29.790   9.412  10.537  1.00  0.00    -0.872 OA
ENDBRANCH   5  12
ENDBRANCH   1   5
TORSDOF 4
ENDMDL
MODEL 17
REMARK VINA RESULT:    -6.989      4.569      6.469
REMARK INTER + INTRA:          -9.486
REMARK INTER:                  -8.431
REMARK INTRA:                  -1.055
REMARK UNBOUND:                -0.863
REMARK SMILES CC(=O)C[C@H](c1ccccc1)c1c([O-])c2ccccc2oc1=O
REMARK SMILES IDX 4 1 2 2 3 3 1 4 5 5 6 6 7 7 11 8 8 9 10 10 9 11 12 12 13 13
REMARK SMILES IDX 22 14 15 15 21 16 23 17 16 18 20 19 17 20 19 21 18 22 14 23
REMARK H PARENT
ROOT
ATOM      1  C   UNL     1      29.769  12.495  13.914  1.00  0.00     0.088 C 
ENDROOT
BRANCH   1   2
ATOM      2  C   UNL     1      30.744  13.650  13.985  1.00  0.00     0.130 C 
ATOM      3  O   UNL     1      31.959  13.461  13.858  1.00  0.00    -0.300 OA
ATOM      4  C   UNL     1      30.211  15.035  14.231  1.00  0.00     0.087 C 
ENDBRANCH   1   2
BRANCH   1   5
ATOM      5  C   UNL     1      28.619  12.769  12.921  1.00  0.00     0.063 C 
BRANCH   5   6
ATOM      6  C   UNL     1      27.417  11.874  13.257  1.00  0.00    -0.040 A 
ATOM      7  C   UNL     1      26.101  12.310  13.032  1.00  0.00     0.004 A 
ATOM      8  C   UNL     1      27.615  10.598  13.806  1.00  0.00     0.004 A 
ATOM      9  C   UNL     1      25.016  11.488  13.337  1.00  0.00     0.000 A 
ATOM     10  C   UNL     1      26.528   9.776  14.109  1.00  0.00     0.000 A 
ATOM     11  C   UNL     1      25.229  10.220  13.872  1.00  0.00     0.000 A 
ENDBRANCH   5   6
BRANCH   5  12
ATOM     12  C   UNL     1      28.914  12.764  11.405  1.00  0.00     0.038 A 
ATOM     13  C   UNL     1      29.461  11.721  10.716  1.00  0.00    -0.086 A 
ATOM     14  C   UNL     1      28.528  14.064  10.766  1.00  0.00     0.339 A 
ATOM     15  C   UNL     1      29.653  11.977   9.248  1.00  0.00     0.010 A 
ATOM     16  O   UNL     1      28.707  14.207   9.405  1.00  0.00    -0.423 OA
ATOM     17  O   UNL     1      28.069  15.011  11.405  1.00  0.00    -0.246 OA
ATOM     18  C   UNL     1      30.222  11.012   8.392  1.00  0.00     0.011 A 
ATOM     19  C   UNL     1      29.275  13.176   8.660  1.00  0.00     0.137 A 
ATOM     20  C   UNL     1      30.398  11.247   7.023  1.00  0.00     0.001 A 
ATOM     21  C   UNL     1      29.441  13.432   7.293  1.00  0.00     0.048 A 
ATOM     22  C   UNL     1      30.006  12.462   6.471  1.00  0.00     0.004 A 
ATOM     23  O   UNL     1      29.796  10.593  11.187  1.00  0.00    -0.872 OA
ENDBRANCH   5  12
ENDBRANCH   1   5
TORSDOF 4
ENDMDL
MODEL 18
REMARK VINA RESULT:    -6.950      4.972      8.630
REMARK INTER + INTRA:          -9.438
REMARK INTER:                  -8.499
REMARK INTRA:                  -0.939
REMARK UNBOUND:                -0.863
REMARK SMILES CC(=O)C[C@H](c1ccccc1)c1c([O-])c2ccccc2oc1=O
REMARK SMILES IDX 4 1 2 2 3 3 1 4 5 5 6 6 7 7 11 8 8 9 10 10 9 11 12 12 13 13
REMARK SMILES IDX 22 14 15 15 21 16 23 17 16 18 20 19 17 20 19 21 18 22 14 23
REMARK H PARENT
ROOT
ATOM      1  C   UNL     1      30.523  11.309  13.013  1.00  0.00     0.088 C 
ENDROOT
BRANCH   1   2
ATOM      2  C   UNL     1      30.761  10.089  13.876  1.00  0.00     0.130 C 
ATOM      3  O   UNL     1      31.531   9.194  13.510  1.00  0.00    -0.300 OA
ATOM      4  C   UNL     1      30.027   9.972  15.184  1.00  0.00     0.087 C 
ENDBRANCH   1   2
BRANCH   1   5
ATOM      5  C   UNL     1      30.132  10.928  11.569  1.00  0.00     0.063 C 
BRANCH   5   6
ATOM      6  C   UNL     1      29.890  12.200  10.743  1.00  0.00    -0.040 A 
ATOM      7  C   UNL     1      29.433  13.382  11.345  1.00  0.00     0.004 A 
ATOM      8  C   UNL     1      30.119  12.198   9.358  1.00  0.00     0.004 A 
ATOM      9  C   UNL     1      29.221  14.533  10.586  1.00  0.00     0.000 A 
ATOM     10  C   UNL     1      29.908  13.351   8.600  1.00  0.00     0.000 A 
ATOM     11  C   UNL     1      29.461  14.519   9.214  1.00  0.00     0.000 A 
ENDBRANCH   5   6
BRANCH   5  12
ATOM     12  C   UNL     1      29.010   9.890  11.340  1.00  0.00     0.038 A 
ATOM     13  C   UNL     1      27.788   9.910  11.947  1.00  0.00    -0.086 A 
ATOM     14  C   UNL     1      29.429   8.837  10.360  1.00  0.00     0.339 A 
ATOM     15  C   UNL     1      26.881   8.778  11.556  1.00  0.00     0.010 A 
ATOM     16  O   UNL     1      28.523   7.848  10.029  1.00  0.00    -0.423 OA
ATOM     17  O   UNL     1      30.547   8.810   9.846  1.00  0.00    -0.246 OA
ATOM     18  C   UNL     1      25.589   8.636  12.102  1.00  0.00     0.011 A 
ATOM     19  C   UNL     1      27.268   7.817  10.632  1.00  0.00     0.137 A 
ATOM     20  C   UNL     1      24.740   7.584  11.736  1.00  0.00     0.001 A 
ATOM     21  C   UNL     1      26.436   6.757  10.251  1.00  0.00     0.048 A 
ATOM     22  C   UNL     1      25.165   6.641  10.806  1.00  0.00     0.004 A 
ATOM     23  O   UNL     1      27.364  10.775  12.771  1.00  0.00    -0.872 OA
ENDBRANCH   5  12
ENDBRANCH   1   5
TORSDOF 4
ENDMDL
MODEL 19
REMARK VINA RESULT:    -6.892      4.305      6.548
REMARK INTER + INTRA:          -9.367
REMARK INTER:                  -8.670
REMARK INTRA:                  -0.697
REMARK UNBOUND:                -0.863
REMARK SMILES CC(=O)C[C@H](c1ccccc1)c1c([O-])c2ccccc2oc1=O
REMARK SMILES IDX 4 1 2 2 3 3 1 4 5 5 6 6 7 7 11 8 8 9 10 10 9 11 12 12 13 13
REMARK SMILES IDX 22 14 15 15 21 16 23 17 16 18 20 19 17 20 19 21 18 22 14 23
REMARK H PARENT
ROOT
ATOM      1  C   UNL     1      30.078   9.481  12.774  1.00  0.00     0.088 C 
ENDROOT
BRANCH   1   2
ATOM      2  C   UNL     1      30.739  10.121  13.975  1.00  0.00     0.130 C 
ATOM      3  O   UNL     1      31.899  10.546  13.908  1.00  0.00    -0.300 OA
ATOM      4  C   UNL     1      29.968  10.217  15.263  1.00  0.00     0.087 C 
ENDBRANCH   1   2
BRANCH   1   5
ATOM      5  C   UNL     1      28.824  10.260  12.321  1.00  0.00     0.063 C 
BRANCH   5   6
ATOM      6  C   UNL     1      27.712   9.276  11.931  1.00  0.00    -0.040 A 
ATOM      7  C   UNL     1      26.581   9.099  12.742  1.00  0.00     0.004 A 
ATOM      8  C   UNL     1      27.813   8.526  10.749  1.00  0.00     0.004 A 
ATOM      9  C   UNL     1      25.574   8.205  12.377  1.00  0.00     0.000 A 
ATOM     10  C   UNL     1      26.804   7.633  10.383  1.00  0.00     0.000 A 
ATOM     11  C   UNL     1      25.684   7.474  11.196  1.00  0.00     0.000 A 
ENDBRANCH   5   6
BRANCH   5  12
ATOM     12  C   UNL     1      28.972  11.383  11.271  1.00  0.00     0.038 A 
ATOM     13  C   UNL     1      29.730  11.303  10.139  1.00  0.00    -0.086 A 
ATOM     14  C   UNL     1      28.176  12.596  11.647  1.00  0.00     0.339 A 
ATOM     15  C   UNL     1      29.710  12.541   9.287  1.00  0.00     0.010 A 
ATOM     16  O   UNL     1      28.184  13.681  10.793  1.00  0.00    -0.423 OA
ATOM     17  O   UNL     1      27.524  12.669  12.689  1.00  0.00    -0.246 OA
ATOM     18  C   UNL     1      30.452  12.635   8.093  1.00  0.00     0.011 A 
ATOM     19  C   UNL     1      28.954  13.653   9.632  1.00  0.00     0.137 A 
ATOM     20  C   UNL     1      30.431  13.786   7.295  1.00  0.00     0.001 A 
ATOM     21  C   UNL     1      28.918  14.814   8.850  1.00  0.00     0.048 A 
ATOM     22  C   UNL     1      29.661  14.880   7.675  1.00  0.00     0.004 A 
ATOM     23  O   UNL     1      30.415  10.308   9.753  1.00  0.00    -0.872 OA
ENDBRANCH   5  12
ENDBRANCH   1   5
TORSDOF 4
ENDMDL
MODEL 20
REMARK VINA RESULT:    -6.811      5.197      6.995
REMARK INTER + INTRA:          -9.267
REMARK INTER:                  -8.133
REMARK INTRA:                  -1.134
REMARK UNBOUND:                -0.863
REMARK SMILES CC(=O)C[C@H](c1ccccc1)c1c([O-])c2ccccc2oc1=O
REMARK SMILES IDX 4 1 2 2 3 3 1 4 5 5 6 6 7 7 11 8 8 9 10 10 9 11 12 12 13 13
REMARK SMILES IDX 22 14 15 15 21 16 23 17 16 18 20 19 17 20 19 21 18 22 14 23
REMARK H PARENT
ROOT
ATOM      1  C   UNL     1      33.166  12.660  16.367  1.00  0.00     0.088 C 
ENDROOT
BRANCH   1   2
ATOM      2  C   UNL     1      32.465  14.001  16.383  1.00  0.00     0.130 C 
ATOM      3  O   UNL     1      31.258  14.081  16.640  1.00  0.00    -0.300 OA
ATOM      4  C   UNL     1      33.258  15.238  16.062  1.00  0.00     0.087 C 
ENDBRANCH   1   2
BRANCH   1   5
ATOM      5  C   UNL     1      32.553  11.700  15.326  1.00  0.00     0.063 C 
BRANCH   5   6
ATOM      6  C   UNL     1      33.321  10.370  15.329  1.00  0.00    -0.040 A 
ATOM      7  C   UNL     1      32.704   9.174  14.930  1.00  0.00     0.004 A 
ATOM      8  C   UNL     1      34.662  10.327  15.740  1.00  0.00     0.004 A 
ATOM      9  C   UNL     1      33.411   7.971  14.932  1.00  0.00     0.000 A 
ATOM     10  C   UNL     1      35.370   9.124  15.740  1.00  0.00     0.000 A 
ATOM     11  C   UNL     1      34.745   7.946  15.334  1.00  0.00     0.000 A 
ENDBRANCH   5   6
BRANCH   5  12
ATOM     12  C   UNL     1      32.309  12.203  13.886  1.00  0.00     0.038 A 
ATOM     13  C   UNL     1      33.273  12.688  13.052  1.00  0.00    -0.086 A 
ATOM     14  C   UNL     1      30.863  12.098  13.505  1.00  0.00     0.339 A 
ATOM     15  C   UNL     1      32.770  13.120  11.703  1.00  0.00     0.010 A 
ATOM     16  O   UNL     1      30.487  12.487  12.235  1.00  0.00    -0.423 OA
ATOM     17  O   UNL     1      29.997  11.692  14.280  1.00  0.00    -0.246 OA
ATOM     18  C   UNL     1      33.629  13.662  10.726  1.00  0.00     0.011 A 
ATOM     19  C   UNL     1      31.432  13.002  11.351  1.00  0.00     0.137 A 
ATOM     20  C   UNL     1      33.162  14.062   9.467  1.00  0.00     0.001 A 
ATOM     21  C   UNL     1      30.944  13.395  10.098  1.00  0.00     0.048 A 
ATOM     22  C   UNL     1      31.814  13.928   9.152  1.00  0.00     0.004 A 
ATOM     23  O   UNL     1      34.512  12.791  13.301  1.00  0.00    -0.872 OA
ENDBRANCH   5  12
ENDBRANCH   1   5
TORSDOF 4
ENDMDL
