MODEL 1
REMARK VINA RESULT:    -6.298      0.000      0.000
REMARK INTER + INTRA:         -10.400
REMARK INTER:                  -9.060
REMARK INTRA:                  -1.340
REMARK UNBOUND:                -1.340
REMARK SMILES O=C(CC1CCCC1)Oc1ccccc1C(=O)C[C@]1(O)C(=O)Oc2ccccc21
REMARK SMILES IDX 15 1 14 2 13 3 12 4 11 5 10 6 16 7 17 8 18 9 19 10 29 11
REMARK SMILES IDX 21 12 28 13 24 14 23 15 22 16 27 17 25 18 26 19 20 20 9 22
REMARK SMILES IDX 2 23 1 24 3 25 4 26 5 27 8 28 6 29 7 30
REMARK H PARENT 20 21
ROOT
ATOM      1  C   UNL     1      31.660  26.303  28.859  1.00  0.00     0.060 A 
ATOM      2  C   UNL     1      31.775  27.580  29.418  1.00  0.00     0.016 A 
ATOM      3  C   UNL     1      31.294  27.809  30.709  1.00  0.00     0.001 A 
ATOM      4  C   UNL     1      30.700  26.771  31.433  1.00  0.00     0.004 A 
ATOM      5  C   UNL     1      30.594  25.493  30.877  1.00  0.00     0.048 A 
ATOM      6  C   UNL     1      31.095  25.262  29.597  1.00  0.00     0.141 A 
ENDROOT
BRANCH   1   7
ATOM      7  C   UNL     1      32.119  26.057  27.480  1.00  0.00     0.170 C 
ATOM      8  O   UNL     1      31.429  26.410  26.529  1.00  0.00    -0.294 OA
BRANCH   7   9
ATOM      9  C   UNL     1      33.491  25.440  27.304  1.00  0.00     0.133 C 
BRANCH   9  10
ATOM     10  C   UNL     1      34.346  26.269  26.344  1.00  0.00     0.198 C 
ATOM     11  C   UNL     1      35.763  26.307  26.789  1.00  0.00     0.038 A 
ATOM     12  C   UNL     1      34.508  25.511  25.000  1.00  0.00     0.348 C 
ATOM     13  C   UNL     1      36.341  26.860  27.922  1.00  0.00     0.011 A 
ATOM     14  C   UNL     1      36.535  25.654  25.846  1.00  0.00     0.137 A 
ATOM     15  O   UNL     1      35.835  25.157  24.764  1.00  0.00    -0.424 OA
ATOM     16  O   UNL     1      33.595  25.203  24.242  1.00  0.00    -0.248 OA
ATOM     17  C   UNL     1      37.721  26.728  28.090  1.00  0.00     0.001 A 
ATOM     18  C   UNL     1      37.902  25.515  25.990  1.00  0.00     0.047 A 
ATOM     19  C   UNL     1      38.497  26.056  27.132  1.00  0.00     0.004 A 
BRANCH  10  20
ATOM     20  O   UNL     1      33.892  27.607  26.241  1.00  0.00    -0.373 OA
ATOM     21  H   UNL     1      33.978  27.856  25.295  1.00  0.00     0.212 HD
ENDBRANCH  10  20
ENDBRANCH   9  10
ENDBRANCH   7   9
ENDBRANCH   1   7
BRANCH   6  22
ATOM     22  O   UNL     1      30.946  24.008  29.002  1.00  0.00    -0.426 OA
BRANCH  22  23
ATOM     23  C   UNL     1      29.705  23.826  28.390  1.00  0.00     0.311 C 
ATOM     24  O   UNL     1      29.444  24.001  27.210  1.00  0.00    -0.252 OA
BRANCH  23  25
ATOM     25  C   UNL     1      28.739  23.319  29.439  1.00  0.00     0.126 C 
BRANCH  25  26
ATOM     26  C   UNL     1      27.367  23.984  29.353  1.00  0.00    -0.000 C 
ATOM     27  C   UNL     1      26.319  23.271  30.213  1.00  0.00     0.004 C 
ATOM     28  C   UNL     1      27.332  25.409  29.904  1.00  0.00     0.004 C 
ATOM     29  C   UNL     1      25.265  24.329  30.532  1.00  0.00     0.000 C 
ATOM     30  C   UNL     1      25.843  25.665  30.076  1.00  0.00     0.000 C 
ENDBRANCH  25  26
ENDBRANCH  23  25
ENDBRANCH  22  23
ENDBRANCH   6  22
TORSDOF 8
ENDMDL
MODEL 2
REMARK VINA RESULT:    -6.234      2.057      8.181
REMARK INTER + INTRA:         -10.308
REMARK INTER:                  -8.749
REMARK INTRA:                  -1.560
REMARK UNBOUND:                -1.340
REMARK SMILES O=C(CC1CCCC1)Oc1ccccc1C(=O)C[C@]1(O)C(=O)Oc2ccccc21
REMARK SMILES IDX 15 1 14 2 13 3 12 4 11 5 10 6 16 7 17 8 18 9 19 10 29 11
REMARK SMILES IDX 21 12 28 13 24 14 23 15 22 16 27 17 25 18 26 19 20 20 9 22
REMARK SMILES IDX 2 23 1 24 3 25 4 26 5 27 8 28 6 29 7 30
REMARK H PARENT 20 21
ROOT
ATOM      1  C   UNL     1      33.660  25.734  26.611  1.00  0.00     0.060 A 
ATOM      2  C   UNL     1      32.917  25.427  25.466  1.00  0.00     0.016 A 
ATOM      3  C   UNL     1      33.560  24.864  24.362  1.00  0.00     0.001 A 
ATOM      4  C   UNL     1      34.935  24.613  24.401  1.00  0.00     0.004 A 
ATOM      5  C   UNL     1      35.675  24.911  25.548  1.00  0.00     0.048 A 
ATOM      6  C   UNL     1      35.026  25.452  26.657  1.00  0.00     0.141 A 
ENDROOT
BRANCH   1   7
ATOM      7  C   UNL     1      33.006  26.372  27.767  1.00  0.00     0.170 C 
ATOM      8  O   UNL     1      32.999  27.595  27.872  1.00  0.00    -0.294 OA
BRANCH   7   9
ATOM      9  C   UNL     1      32.286  25.468  28.745  1.00  0.00     0.133 C 
BRANCH   9  10
ATOM     10  C   UNL     1      30.879  25.990  29.041  1.00  0.00     0.198 C 
ATOM     11  C   UNL     1      29.910  24.870  29.158  1.00  0.00     0.038 A 
ATOM     12  C   UNL     1      30.821  26.546  30.489  1.00  0.00     0.348 C 
ATOM     13  C   UNL     1      29.468  23.954  28.216  1.00  0.00     0.011 A 
ATOM     14  C   UNL     1      29.440  24.832  30.458  1.00  0.00     0.137 A 
ATOM     15  O   UNL     1      29.956  25.805  31.291  1.00  0.00    -0.424 OA
ATOM     16  O   UNL     1      31.479  27.488  30.916  1.00  0.00    -0.248 OA
ATOM     17  C   UNL     1      28.547  22.984  28.619  1.00  0.00     0.001 A 
ATOM     18  C   UNL     1      28.527  23.884  30.879  1.00  0.00     0.047 A 
ATOM     19  C   UNL     1      28.082  22.946  29.943  1.00  0.00     0.004 A 
BRANCH  10  20
ATOM     20  O   UNL     1      30.407  26.863  28.030  1.00  0.00    -0.373 OA
ATOM     21  H   UNL     1      30.718  26.491  27.176  1.00  0.00     0.212 HD
ENDBRANCH  10  20
ENDBRANCH   9  10
ENDBRANCH   7   9
ENDBRANCH   1   7
BRANCH   6  22
ATOM     22  O   UNL     1      35.758  25.809  27.791  1.00  0.00    -0.426 OA
BRANCH  22  23
ATOM     23  C   UNL     1      36.610  26.896  27.584  1.00  0.00     0.311 C 
ATOM     24  O   UNL     1      36.387  27.869  26.879  1.00  0.00    -0.252 OA
BRANCH  23  25
ATOM     25  C   UNL     1      37.846  26.687  28.430  1.00  0.00     0.126 C 
BRANCH  25  26
ATOM     26  C   UNL     1      37.586  26.882  29.921  1.00  0.00    -0.000 C 
ATOM     27  C   UNL     1      38.647  26.203  30.792  1.00  0.00     0.004 C 
ATOM     28  C   UNL     1      37.663  28.338  30.380  1.00  0.00     0.004 C 
ATOM     29  C   UNL     1      38.641  26.969  32.114  1.00  0.00     0.000 C 
ATOM     30  C   UNL     1      37.778  28.207  31.890  1.00  0.00     0.000 C 
ENDBRANCH  25  26
ENDBRANCH  23  25
ENDBRANCH  22  23
ENDBRANCH   6  22
TORSDOF 8
ENDMDL
MODEL 3
REMARK VINA RESULT:    -6.215      1.004      1.298
REMARK INTER + INTRA:         -10.280
REMARK INTER:                  -8.561
REMARK INTRA:                  -1.719
REMARK UNBOUND:                -1.340
REMARK SMILES O=C(CC1CCCC1)Oc1ccccc1C(=O)C[C@]1(O)C(=O)Oc2ccccc21
REMARK SMILES IDX 15 1 14 2 13 3 12 4 11 5 10 6 16 7 17 8 18 9 19 10 29 11
REMARK SMILES IDX 21 12 28 13 24 14 23 15 22 16 27 17 25 18 26 19 20 20 9 22
REMARK SMILES IDX 2 23 1 24 3 25 4 26 5 27 8 28 6 29 7 30
REMARK H PARENT 20 21
ROOT
ATOM      1  C   UNL     1      32.421  26.548  28.075  1.00  0.00     0.060 A 
ATOM      2  C   UNL     1      32.519  27.927  28.288  1.00  0.00     0.016 A 
ATOM      3  C   UNL     1      31.800  28.511  29.333  1.00  0.00     0.001 A 
ATOM      4  C   UNL     1      30.988  27.724  30.155  1.00  0.00     0.004 A 
ATOM      5  C   UNL     1      30.898  26.345  29.947  1.00  0.00     0.048 A 
ATOM      6  C   UNL     1      31.634  25.761  28.917  1.00  0.00     0.141 A 
ENDROOT
BRANCH   1   7
ATOM      7  C   UNL     1      33.136  25.923  26.947  1.00  0.00     0.170 C 
ATOM      8  O   UNL     1      32.623  25.896  25.833  1.00  0.00    -0.294 OA
BRANCH   7   9
ATOM      9  C   UNL     1      34.535  25.407  27.211  1.00  0.00     0.133 C 
BRANCH   9  10
ATOM     10  C   UNL     1      35.572  26.212  26.427  1.00  0.00     0.198 C 
ATOM     11  C   UNL     1      36.748  26.535  27.276  1.00  0.00     0.038 A 
ATOM     12  C   UNL     1      36.250  25.301  25.368  1.00  0.00     0.348 C 
ATOM     13  C   UNL     1      36.855  27.330  28.406  1.00  0.00     0.011 A 
ATOM     14  C   UNL     1      37.853  25.882  26.760  1.00  0.00     0.137 A 
ATOM     15  O   UNL     1      37.608  25.130  25.629  1.00  0.00    -0.424 OA
ATOM     16  O   UNL     1      35.678  24.747  24.435  1.00  0.00    -0.248 OA
ATOM     17  C   UNL     1      38.106  27.443  29.018  1.00  0.00     0.001 A 
ATOM     18  C   UNL     1      39.100  25.981  27.346  1.00  0.00     0.047 A 
ATOM     19  C   UNL     1      39.221  26.769  28.494  1.00  0.00     0.004 A 
BRANCH  10  20
ATOM     20  O   UNL     1      35.047  27.432  25.937  1.00  0.00    -0.373 OA
ATOM     21  H   UNL     1      34.893  27.302  24.976  1.00  0.00     0.212 HD
ENDBRANCH  10  20
ENDBRANCH   9  10
ENDBRANCH   7   9
ENDBRANCH   1   7
BRANCH   6  22
ATOM     22  O   UNL     1      31.513  24.395  28.657  1.00  0.00    -0.426 OA
BRANCH  22  23
ATOM     23  C   UNL     1      30.296  24.047  28.067  1.00  0.00     0.311 C 
ATOM     24  O   UNL     1      29.955  24.276  26.917  1.00  0.00    -0.252 OA
BRANCH  23  25
ATOM     25  C   UNL     1      29.484  23.284  29.091  1.00  0.00     0.126 C 
BRANCH  25  26
ATOM     26  C   UNL     1      28.001  23.644  29.060  1.00  0.00    -0.000 C 
ATOM     27  C   UNL     1      27.163  22.745  29.974  1.00  0.00     0.004 C 
ATOM     28  C   UNL     1      27.690  25.041  29.596  1.00  0.00     0.004 C 
ATOM     29  C   UNL     1      25.924  23.564  30.328  1.00  0.00     0.000 C 
ATOM     30  C   UNL     1      26.189  24.982  29.832  1.00  0.00     0.000 C 
ENDBRANCH  25  26
ENDBRANCH  23  25
ENDBRANCH  22  23
ENDBRANCH   6  22
TORSDOF 8
ENDMDL
MODEL 4
REMARK VINA RESULT:    -6.210      1.888      8.437
REMARK INTER + INTRA:         -10.273
REMARK INTER:                  -8.767
REMARK INTRA:                  -1.506
REMARK UNBOUND:                -1.340
REMARK SMILES O=C(CC1CCCC1)Oc1ccccc1C(=O)C[C@]1(O)C(=O)Oc2ccccc21
REMARK SMILES IDX 15 1 14 2 13 3 12 4 11 5 10 6 16 7 17 8 18 9 19 10 29 11
REMARK SMILES IDX 21 12 28 13 24 14 23 15 22 16 27 17 25 18 26 19 20 20 9 22
REMARK SMILES IDX 2 23 1 24 3 25 4 26 5 27 8 28 6 29 7 30
REMARK H PARENT 20 21
ROOT
ATOM      1  C   UNL     1      33.070  25.671  26.640  1.00  0.00     0.060 A 
ATOM      2  C   UNL     1      32.178  25.572  25.568  1.00  0.00     0.016 A 
ATOM      3  C   UNL     1      32.659  25.215  24.306  1.00  0.00     0.001 A 
ATOM      4  C   UNL     1      34.021  24.963  24.118  1.00  0.00     0.004 A 
ATOM      5  C   UNL     1      34.911  25.054  25.192  1.00  0.00     0.048 A 
ATOM      6  C   UNL     1      34.425  25.388  26.454  1.00  0.00     0.141 A 
ENDROOT
BRANCH   1   7
ATOM      7  C   UNL     1      32.586  26.093  27.967  1.00  0.00     0.170 C 
ATOM      8  O   UNL     1      32.749  27.249  28.343  1.00  0.00    -0.294 OA
BRANCH   7   9
ATOM      9  C   UNL     1      31.821  25.073  28.785  1.00  0.00     0.133 C 
BRANCH   9  10
ATOM     10  C   UNL     1      30.489  25.647  29.268  1.00  0.00     0.198 C 
ATOM     11  C   UNL     1      29.404  24.636  29.163  1.00  0.00     0.038 A 
ATOM     12  C   UNL     1      30.529  25.836  30.808  1.00  0.00     0.348 C 
ATOM     13  C   UNL     1      28.840  24.027  28.053  1.00  0.00     0.011 A 
ATOM     14  C   UNL     1      28.966  24.330  30.439  1.00  0.00     0.137 A 
ATOM     15  O   UNL     1      29.608  25.013  31.453  1.00  0.00    -0.424 OA
ATOM     16  O   UNL     1      31.298  26.574  31.415  1.00  0.00    -0.248 OA
ATOM     17  C   UNL     1      27.828  23.087  28.258  1.00  0.00     0.001 A 
ATOM     18  C   UNL     1      27.965  23.406  30.666  1.00  0.00     0.047 A 
ATOM     19  C   UNL     1      27.396  22.775  29.557  1.00  0.00     0.004 A 
BRANCH  10  20
ATOM     20  O   UNL     1      30.091  26.783  28.522  1.00  0.00    -0.373 OA
ATOM     21  H   UNL     1      29.675  26.443  27.700  1.00  0.00     0.212 HD
ENDBRANCH  10  20
ENDBRANCH   9  10
ENDBRANCH   7   9
ENDBRANCH   1   7
BRANCH   6  22
ATOM     22  O   UNL     1      35.306  25.540  27.528  1.00  0.00    -0.426 OA
BRANCH  22  23
ATOM     23  C   UNL     1      36.264  26.534  27.324  1.00  0.00     0.311 C 
ATOM     24  O   UNL     1      36.049  27.724  27.144  1.00  0.00    -0.252 OA
BRANCH  23  25
ATOM     25  C   UNL     1      37.630  25.890  27.414  1.00  0.00     0.126 C 
BRANCH  25  26
ATOM     26  C   UNL     1      38.483  26.463  28.543  1.00  0.00    -0.000 C 
ATOM     27  C   UNL     1      37.679  26.684  29.828  1.00  0.00     0.004 C 
ATOM     28  C   UNL     1      39.602  25.533  29.010  1.00  0.00     0.004 C 
ATOM     29  C   UNL     1      38.699  26.632  30.963  1.00  0.00     0.000 C 
ATOM     30  C   UNL     1      40.004  26.137  30.346  1.00  0.00     0.000 C 
ENDBRANCH  25  26
ENDBRANCH  23  25
ENDBRANCH  22  23
ENDBRANCH   6  22
TORSDOF 8
ENDMDL
MODEL 5
REMARK VINA RESULT:    -6.155      1.819      2.814
REMARK INTER + INTRA:         -10.194
REMARK INTER:                  -8.042
REMARK INTRA:                  -2.152
REMARK UNBOUND:                -1.340
REMARK SMILES O=C(CC1CCCC1)Oc1ccccc1C(=O)C[C@]1(O)C(=O)Oc2ccccc21
REMARK SMILES IDX 15 1 14 2 13 3 12 4 11 5 10 6 16 7 17 8 18 9 19 10 29 11
REMARK SMILES IDX 21 12 28 13 24 14 23 15 22 16 27 17 25 18 26 19 20 20 9 22
REMARK SMILES IDX 2 23 1 24 3 25 4 26 5 27 8 28 6 29 7 30
REMARK H PARENT 20 21
ROOT
ATOM      1  C   UNL     1      30.842  26.883  27.075  1.00  0.00     0.060 A 
ATOM      2  C   UNL     1      30.047  27.742  26.308  1.00  0.00     0.016 A 
ATOM      3  C   UNL     1      29.232  28.676  26.950  1.00  0.00     0.001 A 
ATOM      4  C   UNL     1      29.209  28.749  28.347  1.00  0.00     0.004 A 
ATOM      5  C   UNL     1      30.010  27.897  29.111  1.00  0.00     0.048 A 
ATOM      6  C   UNL     1      30.840  26.981  28.467  1.00  0.00     0.141 A 
ENDROOT
BRANCH   1   7
ATOM      7  C   UNL     1      31.672  25.860  26.414  1.00  0.00     0.170 C 
ATOM      8  O   UNL     1      31.259  24.711  26.302  1.00  0.00    -0.294 OA
BRANCH   7   9
ATOM      9  C   UNL     1      32.991  26.311  25.820  1.00  0.00     0.133 C 
BRANCH   9  10
ATOM     10  C   UNL     1      34.152  26.007  26.768  1.00  0.00     0.198 C 
ATOM     11  C   UNL     1      35.305  25.431  26.029  1.00  0.00     0.038 A 
ATOM     12  C   UNL     1      34.786  27.335  27.261  1.00  0.00     0.348 C 
ATOM     13  C   UNL     1      35.433  24.232  25.345  1.00  0.00     0.011 A 
ATOM     14  C   UNL     1      36.361  26.321  26.103  1.00  0.00     0.137 A 
ATOM     15  O   UNL     1      36.101  27.472  26.820  1.00  0.00    -0.424 OA
ATOM     16  O   UNL     1      34.213  28.198  27.916  1.00  0.00    -0.248 OA
ATOM     17  C   UNL     1      36.651  23.954  24.722  1.00  0.00     0.001 A 
ATOM     18  C   UNL     1      37.575  26.066  25.497  1.00  0.00     0.047 A 
ATOM     19  C   UNL     1      37.715  24.867  24.794  1.00  0.00     0.004 A 
BRANCH  10  20
ATOM     20  O   UNL     1      33.789  25.088  27.783  1.00  0.00    -0.373 OA
ATOM     21  H   UNL     1      32.847  24.859  27.625  1.00  0.00     0.212 HD
ENDBRANCH  10  20
ENDBRANCH   9  10
ENDBRANCH   7   9
ENDBRANCH   1   7
BRANCH   6  22
ATOM     22  O   UNL     1      31.605  26.082  29.214  1.00  0.00    -0.426 OA
BRANCH  22  23
ATOM     23  C   UNL     1      30.892  25.472  30.248  1.00  0.00     0.311 C 
ATOM     24  O   UNL     1      30.862  25.826  31.417  1.00  0.00    -0.252 OA
BRANCH  23  25
ATOM     25  C   UNL     1      30.116  24.315  29.658  1.00  0.00     0.126 C 
BRANCH  25  26
ATOM     26  C   UNL     1      28.724  24.163  30.265  1.00  0.00    -0.000 C 
ATOM     27  C   UNL     1      27.789  25.312  29.875  1.00  0.00     0.004 C 
ATOM     28  C   UNL     1      27.961  22.934  29.771  1.00  0.00     0.004 C 
ATOM     29  C   UNL     1      26.376  24.744  29.986  1.00  0.00     0.000 C 
ATOM     30  C   UNL     1      26.530  23.240  30.185  1.00  0.00     0.000 C 
ENDBRANCH  25  26
ENDBRANCH  23  25
ENDBRANCH  22  23
ENDBRANCH   6  22
TORSDOF 8
ENDMDL
MODEL 6
REMARK VINA RESULT:    -6.155      2.456      4.680
REMARK INTER + INTRA:         -10.194
REMARK INTER:                  -8.202
REMARK INTRA:                  -1.992
REMARK UNBOUND:                -1.340
REMARK SMILES O=C(CC1CCCC1)Oc1ccccc1C(=O)C[C@]1(O)C(=O)Oc2ccccc21
REMARK SMILES IDX 15 1 14 2 13 3 12 4 11 5 10 6 16 7 17 8 18 9 19 10 29 11
REMARK SMILES IDX 21 12 28 13 24 14 23 15 22 16 27 17 25 18 26 19 20 20 9 22
REMARK SMILES IDX 2 23 1 24 3 25 4 26 5 27 8 28 6 29 7 30
REMARK H PARENT 20 21
ROOT
ATOM      1  C   UNL     1      28.737  24.486  30.050  1.00  0.00     0.060 A 
ATOM      2  C   UNL     1      28.291  23.161  30.058  1.00  0.00     0.016 A 
ATOM      3  C   UNL     1      26.922  22.899  30.151  1.00  0.00     0.001 A 
ATOM      4  C   UNL     1      26.008  23.954  30.236  1.00  0.00     0.004 A 
ATOM      5  C   UNL     1      26.455  25.278  30.219  1.00  0.00     0.048 A 
ATOM      6  C   UNL     1      27.819  25.536  30.104  1.00  0.00     0.141 A 
ENDROOT
BRANCH   1   7
ATOM      7  C   UNL     1      30.181  24.778  30.001  1.00  0.00     0.170 C 
ATOM      8  O   UNL     1      30.729  25.331  30.949  1.00  0.00    -0.294 OA
BRANCH   7   9
ATOM      9  C   UNL     1      30.948  24.295  28.788  1.00  0.00     0.133 C 
BRANCH   9  10
ATOM     10  C   UNL     1      30.922  25.339  27.671  1.00  0.00     0.198 C 
ATOM     11  C   UNL     1      32.232  25.406  26.973  1.00  0.00     0.038 A 
ATOM     12  C   UNL     1      30.024  24.839  26.508  1.00  0.00     0.348 C 
ATOM     13  C   UNL     1      33.481  25.796  27.430  1.00  0.00     0.011 A 
ATOM     14  C   UNL     1      32.054  24.986  25.667  1.00  0.00     0.137 A 
ATOM     15  O   UNL     1      30.759  24.632  25.342  1.00  0.00    -0.424 OA
ATOM     16  O   UNL     1      28.824  24.599  26.587  1.00  0.00    -0.248 OA
ATOM     17  C   UNL     1      34.556  25.741  26.540  1.00  0.00     0.001 A 
ATOM     18  C   UNL     1      33.101  24.927  24.769  1.00  0.00     0.047 A 
ATOM     19  C   UNL     1      34.369  25.306  25.219  1.00  0.00     0.004 A 
BRANCH  10  20
ATOM     20  O   UNL     1      30.627  26.637  28.157  1.00  0.00    -0.373 OA
ATOM     21  H   UNL     1      30.159  27.104  27.431  1.00  0.00     0.212 HD
ENDBRANCH  10  20
ENDBRANCH   9  10
ENDBRANCH   7   9
ENDBRANCH   1   7
BRANCH   6  22
ATOM     22  O   UNL     1      28.290  26.851  30.142  1.00  0.00    -0.426 OA
BRANCH  22  23
ATOM     23  C   UNL     1      27.816  27.641  29.093  1.00  0.00     0.311 C 
ATOM     24  O   UNL     1      27.650  27.287  27.935  1.00  0.00    -0.252 OA
BRANCH  23  25
ATOM     25  C   UNL     1      27.493  29.010  29.650  1.00  0.00     0.126 C 
BRANCH  25  26
ATOM     26  C   UNL     1      26.481  28.963  30.791  1.00  0.00    -0.000 C 
ATOM     27  C   UNL     1      26.324  30.317  31.487  1.00  0.00     0.004 C 
ATOM     28  C   UNL     1      25.053  28.654  30.342  1.00  0.00     0.004 C 
ATOM     29  C   UNL     1      24.928  30.299  32.108  1.00  0.00     0.000 C 
ATOM     30  C   UNL     1      24.226  29.064  31.551  1.00  0.00     0.000 C 
ENDBRANCH  25  26
ENDBRANCH  23  25
ENDBRANCH  22  23
ENDBRANCH   6  22
TORSDOF 8
ENDMDL
MODEL 7
REMARK VINA RESULT:    -6.084      1.537      2.197
REMARK INTER + INTRA:         -10.092
REMARK INTER:                  -8.223
REMARK INTRA:                  -1.869
REMARK UNBOUND:                -1.340
REMARK SMILES O=C(CC1CCCC1)Oc1ccccc1C(=O)C[C@]1(O)C(=O)Oc2ccccc21
REMARK SMILES IDX 15 1 14 2 13 3 12 4 11 5 10 6 16 7 17 8 18 9 19 10 29 11
REMARK SMILES IDX 21 12 28 13 24 14 23 15 22 16 27 17 25 18 26 19 20 20 9 22
REMARK SMILES IDX 2 23 1 24 3 25 4 26 5 27 8 28 6 29 7 30
REMARK H PARENT 20 21
ROOT
ATOM      1  C   UNL     1      30.401  25.307  28.649  1.00  0.00     0.060 A 
ATOM      2  C   UNL     1      30.875  26.316  29.493  1.00  0.00     0.016 A 
ATOM      3  C   UNL     1      30.743  26.173  30.876  1.00  0.00     0.001 A 
ATOM      4  C   UNL     1      30.138  25.031  31.410  1.00  0.00     0.004 A 
ATOM      5  C   UNL     1      29.672  24.019  30.567  1.00  0.00     0.048 A 
ATOM      6  C   UNL     1      29.826  24.154  29.189  1.00  0.00     0.141 A 
ENDROOT
BRANCH   1   7
ATOM      7  C   UNL     1      30.490  25.464  27.187  1.00  0.00     0.170 C 
ATOM      8  O   UNL     1      29.690  26.182  26.595  1.00  0.00    -0.294 OA
BRANCH   7   9
ATOM      9  C   UNL     1      31.643  24.780  26.482  1.00  0.00     0.133 C 
BRANCH   9  10
ATOM     10  C   UNL     1      32.489  25.792  25.707  1.00  0.00     0.198 C 
ATOM     11  C   UNL     1      33.934  25.461  25.803  1.00  0.00     0.038 A 
ATOM     12  C   UNL     1      32.270  25.597  24.183  1.00  0.00     0.348 C 
ATOM     13  C   UNL     1      34.789  25.450  26.894  1.00  0.00     0.011 A 
ATOM     14  C   UNL     1      34.391  25.126  24.541  1.00  0.00     0.137 A 
ATOM     15  O   UNL     1      33.438  25.185  23.543  1.00  0.00    -0.424 OA
ATOM     16  O   UNL     1      31.204  25.733  23.593  1.00  0.00    -0.248 OA
ATOM     17  C   UNL     1      36.118  25.077  26.688  1.00  0.00     0.001 A 
ATOM     18  C   UNL     1      35.702  24.757  24.312  1.00  0.00     0.047 A 
ATOM     19  C   UNL     1      36.572  24.729  25.405  1.00  0.00     0.004 A 
BRANCH  10  20
ATOM     20  O   UNL     1      32.317  27.114  26.186  1.00  0.00    -0.373 OA
ATOM     21  H   UNL     1      31.631  27.527  25.617  1.00  0.00     0.212 HD
ENDBRANCH  10  20
ENDBRANCH   9  10
ENDBRANCH   7   9
ENDBRANCH   1   7
BRANCH   6  22
ATOM     22  O   UNL     1      29.316  23.181  28.327  1.00  0.00    -0.426 OA
BRANCH  22  23
ATOM     23  C   UNL     1      27.966  22.896  28.547  1.00  0.00     0.311 C 
ATOM     24  O   UNL     1      27.513  21.900  29.088  1.00  0.00    -0.252 OA
BRANCH  23  25
ATOM     25  C   UNL     1      27.156  24.069  28.041  1.00  0.00     0.126 C 
BRANCH  25  26
ATOM     26  C   UNL     1      25.978  24.414  28.949  1.00  0.00    -0.000 C 
ATOM     27  C   UNL     1      26.410  25.199  30.191  1.00  0.00     0.004 C 
ATOM     28  C   UNL     1      24.952  25.347  28.308  1.00  0.00     0.004 C 
ATOM     29  C   UNL     1      25.175  25.983  30.628  1.00  0.00     0.000 C 
ATOM     30  C   UNL     1      24.153  25.838  29.506  1.00  0.00     0.000 C 
ENDBRANCH  25  26
ENDBRANCH  23  25
ENDBRANCH  22  23
ENDBRANCH   6  22
TORSDOF 8
ENDMDL
MODEL 8
REMARK VINA RESULT:    -6.058      2.633      5.004
REMARK INTER + INTRA:         -10.054
REMARK INTER:                  -8.122
REMARK INTRA:                  -1.932
REMARK UNBOUND:                -1.340
REMARK SMILES O=C(CC1CCCC1)Oc1ccccc1C(=O)C[C@]1(O)C(=O)Oc2ccccc21
REMARK SMILES IDX 15 1 14 2 13 3 12 4 11 5 10 6 16 7 17 8 18 9 19 10 29 11
REMARK SMILES IDX 21 12 28 13 24 14 23 15 22 16 27 17 25 18 26 19 20 20 9 22
REMARK SMILES IDX 2 23 1 24 3 25 4 26 5 27 8 28 6 29 7 30
REMARK H PARENT 20 21
ROOT
ATOM      1  C   UNL     1      28.713  24.467  30.082  1.00  0.00     0.060 A 
ATOM      2  C   UNL     1      28.299  23.132  30.139  1.00  0.00     0.016 A 
ATOM      3  C   UNL     1      26.935  22.840  30.216  1.00  0.00     0.001 A 
ATOM      4  C   UNL     1      25.994  23.874  30.238  1.00  0.00     0.004 A 
ATOM      5  C   UNL     1      26.409  25.207  30.172  1.00  0.00     0.048 A 
ATOM      6  C   UNL     1      27.768  25.495  30.073  1.00  0.00     0.141 A 
ENDROOT
BRANCH   1   7
ATOM      7  C   UNL     1      30.150  24.793  30.049  1.00  0.00     0.170 C 
ATOM      8  O   UNL     1      30.673  25.362  31.001  1.00  0.00    -0.294 OA
BRANCH   7   9
ATOM      9  C   UNL     1      30.942  24.325  28.846  1.00  0.00     0.133 C 
BRANCH   9  10
ATOM     10  C   UNL     1      30.888  25.356  27.718  1.00  0.00     0.198 C 
ATOM     11  C   UNL     1      32.183  25.421  26.993  1.00  0.00     0.038 A 
ATOM     12  C   UNL     1      29.970  24.839  26.579  1.00  0.00     0.348 C 
ATOM     13  C   UNL     1      33.439  25.823  27.420  1.00  0.00     0.011 A 
ATOM     14  C   UNL     1      31.981  24.986  25.696  1.00  0.00     0.137 A 
ATOM     15  O   UNL     1      30.682  24.623  25.401  1.00  0.00    -0.424 OA
ATOM     16  O   UNL     1      28.773  24.594  26.685  1.00  0.00    -0.248 OA
ATOM     17  C   UNL     1      34.496  25.764  26.510  1.00  0.00     0.001 A 
ATOM     18  C   UNL     1      33.010  24.922  24.778  1.00  0.00     0.047 A 
ATOM     19  C   UNL     1      34.285  25.312  25.198  1.00  0.00     0.004 A 
BRANCH  10  20
ATOM     20  O   UNL     1      30.596  26.658  28.195  1.00  0.00    -0.373 OA
ATOM     21  H   UNL     1      29.617  26.731  28.217  1.00  0.00     0.212 HD
ENDBRANCH  10  20
ENDBRANCH   9  10
ENDBRANCH   7   9
ENDBRANCH   1   7
BRANCH   6  22
ATOM     22  O   UNL     1      28.205  26.821  30.063  1.00  0.00    -0.426 OA
BRANCH  22  23
ATOM     23  C   UNL     1      27.602  27.598  29.072  1.00  0.00     0.311 C 
ATOM     24  O   UNL     1      27.750  27.479  27.865  1.00  0.00    -0.252 OA
BRANCH  23  25
ATOM     25  C   UNL     1      26.682  28.588  29.753  1.00  0.00     0.126 C 
BRANCH  25  26
ATOM     26  C   UNL     1      27.438  29.670  30.519  1.00  0.00    -0.000 C 
ATOM     27  C   UNL     1      28.412  30.444  29.627  1.00  0.00     0.004 C 
ATOM     28  C   UNL     1      26.543  30.780  31.071  1.00  0.00     0.004 C 
ATOM     29  C   UNL     1      28.591  31.804  30.300  1.00  0.00     0.000 C 
ATOM     30  C   UNL     1      27.539  31.879  31.403  1.00  0.00     0.000 C 
ENDBRANCH  25  26
ENDBRANCH  23  25
ENDBRANCH  22  23
ENDBRANCH   6  22
TORSDOF 8
ENDMDL
MODEL 9
REMARK VINA RESULT:    -6.016      2.419      4.488
REMARK INTER + INTRA:          -9.994
REMARK INTER:                  -6.760
REMARK INTRA:                  -3.234
REMARK UNBOUND:                -1.340
REMARK SMILES O=C(CC1CCCC1)Oc1ccccc1C(=O)C[C@]1(O)C(=O)Oc2ccccc21
REMARK SMILES IDX 15 1 14 2 13 3 12 4 11 5 10 6 16 7 17 8 18 9 19 10 29 11
REMARK SMILES IDX 21 12 28 13 24 14 23 15 22 16 27 17 25 18 26 19 20 20 9 22
REMARK SMILES IDX 2 23 1 24 3 25 4 26 5 27 8 28 6 29 7 30
REMARK H PARENT 20 21
ROOT
ATOM      1  C   UNL     1      28.564  25.390  26.451  1.00  0.00     0.060 A 
ATOM      2  C   UNL     1      28.122  26.613  25.935  1.00  0.00     0.016 A 
ATOM      3  C   UNL     1      26.823  27.043  26.209  1.00  0.00     0.001 A 
ATOM      4  C   UNL     1      25.971  26.256  26.991  1.00  0.00     0.004 A 
ATOM      5  C   UNL     1      26.417  25.039  27.513  1.00  0.00     0.048 A 
ATOM      6  C   UNL     1      27.722  24.623  27.256  1.00  0.00     0.141 A 
ENDROOT
BRANCH   1   7
ATOM      7  C   UNL     1      29.917  24.900  26.131  1.00  0.00     0.170 C 
ATOM      8  O   UNL     1      30.124  24.311  25.075  1.00  0.00    -0.294 OA
BRANCH   7   9
ATOM      9  C   UNL     1      31.026  25.229  27.108  1.00  0.00     0.133 C 
BRANCH   9  10
ATOM     10  C   UNL     1      31.865  26.406  26.610  1.00  0.00     0.198 C 
ATOM     11  C   UNL     1      31.704  27.588  27.495  1.00  0.00     0.038 A 
ATOM     12  C   UNL     1      33.371  26.107  26.834  1.00  0.00     0.348 C 
ATOM     13  C   UNL     1      30.594  28.376  27.759  1.00  0.00     0.011 A 
ATOM     14  C   UNL     1      32.919  27.849  28.102  1.00  0.00     0.137 A 
ATOM     15  O   UNL     1      33.942  26.993  27.746  1.00  0.00    -0.424 OA
ATOM     16  O   UNL     1      33.997  25.183  26.326  1.00  0.00    -0.248 OA
ATOM     17  C   UNL     1      30.733  29.431  28.663  1.00  0.00     0.001 A 
ATOM     18  C   UNL     1      33.081  28.889  28.996  1.00  0.00     0.047 A 
ATOM     19  C   UNL     1      31.968  29.684  29.281  1.00  0.00     0.004 A 
BRANCH  10  20
ATOM     20  O   UNL     1      31.509  26.800  25.297  1.00  0.00    -0.373 OA
ATOM     21  H   UNL     1      32.300  26.643  24.736  1.00  0.00     0.212 HD
ENDBRANCH  10  20
ENDBRANCH   9  10
ENDBRANCH   7   9
ENDBRANCH   1   7
BRANCH   6  22
ATOM     22  O   UNL     1      28.167  23.384  27.722  1.00  0.00    -0.426 OA
BRANCH  22  23
ATOM     23  C   UNL     1      28.124  23.264  29.112  1.00  0.00     0.311 C 
ATOM     24  O   UNL     1      27.159  22.933  29.784  1.00  0.00    -0.252 OA
BRANCH  23  25
ATOM     25  C   UNL     1      29.506  23.569  29.648  1.00  0.00     0.126 C 
BRANCH  25  26
ATOM     26  C   UNL     1      29.522  24.753  30.612  1.00  0.00    -0.000 C 
ATOM     27  C   UNL     1      30.937  25.279  30.866  1.00  0.00     0.004 C 
ATOM     28  C   UNL     1      28.798  25.992  30.085  1.00  0.00     0.004 C 
ATOM     29  C   UNL     1      30.763  26.739  31.277  1.00  0.00     0.000 C 
ATOM     30  C   UNL     1      29.303  27.091  31.007  1.00  0.00     0.000 C 
ENDBRANCH  25  26
ENDBRANCH  23  25
ENDBRANCH  22  23
ENDBRANCH   6  22
TORSDOF 8
ENDMDL
MODEL 10
REMARK VINA RESULT:    -5.978      1.824      8.811
REMARK INTER + INTRA:          -9.940
REMARK INTER:                  -8.328
REMARK INTRA:                  -1.611
REMARK UNBOUND:                -1.340
REMARK SMILES O=C(CC1CCCC1)Oc1ccccc1C(=O)C[C@]1(O)C(=O)Oc2ccccc21
REMARK SMILES IDX 15 1 14 2 13 3 12 4 11 5 10 6 16 7 17 8 18 9 19 10 29 11
REMARK SMILES IDX 21 12 28 13 24 14 23 15 22 16 27 17 25 18 26 19 20 20 9 22
REMARK SMILES IDX 2 23 1 24 3 25 4 26 5 27 8 28 6 29 7 30
REMARK H PARENT 20 21
ROOT
ATOM      1  C   UNL     1      32.852  25.575  26.505  1.00  0.00     0.060 A 
ATOM      2  C   UNL     1      31.955  25.580  25.432  1.00  0.00     0.016 A 
ATOM      3  C   UNL     1      32.430  25.342  24.140  1.00  0.00     0.001 A 
ATOM      4  C   UNL     1      33.792  25.104  23.924  1.00  0.00     0.004 A 
ATOM      5  C   UNL     1      34.685  25.091  24.999  1.00  0.00     0.048 A 
ATOM      6  C   UNL     1      34.204  25.306  26.289  1.00  0.00     0.141 A 
ENDROOT
BRANCH   1   7
ATOM      7  C   UNL     1      32.374  25.871  27.868  1.00  0.00     0.170 C 
ATOM      8  O   UNL     1      32.637  26.949  28.392  1.00  0.00    -0.294 OA
BRANCH   7   9
ATOM      9  C   UNL     1      31.491  24.837  28.535  1.00  0.00     0.133 C 
BRANCH   9  10
ATOM     10  C   UNL     1      30.248  25.489  29.144  1.00  0.00     0.198 C 
ATOM     11  C   UNL     1      29.054  24.622  28.972  1.00  0.00     0.038 A 
ATOM     12  C   UNL     1      30.361  25.484  30.692  1.00  0.00     0.348 C 
ATOM     13  C   UNL     1      28.388  24.217  27.825  1.00  0.00     0.011 A 
ATOM     14  C   UNL     1      28.627  24.212  30.222  1.00  0.00     0.137 A 
ATOM     15  O   UNL     1      29.374  24.693  31.278  1.00  0.00    -0.424 OA
ATOM     16  O   UNL     1      31.228  26.055  31.345  1.00  0.00    -0.248 OA
ATOM     17  C   UNL     1      27.284  23.374  27.966  1.00  0.00     0.001 A 
ATOM     18  C   UNL     1      27.536  23.381  30.385  1.00  0.00     0.047 A 
ATOM     19  C   UNL     1      26.862  22.955  29.237  1.00  0.00     0.004 A 
BRANCH  10  20
ATOM     20  O   UNL     1      29.958  26.744  28.556  1.00  0.00    -0.373 OA
ATOM     21  H   UNL     1      30.328  27.425  29.159  1.00  0.00     0.212 HD
ENDBRANCH  10  20
ENDBRANCH   9  10
ENDBRANCH   7   9
ENDBRANCH   1   7
BRANCH   6  22
ATOM     22  O   UNL     1      35.089  25.353  27.368  1.00  0.00    -0.426 OA
BRANCH  22  23
ATOM     23  C   UNL     1      36.035  26.375  27.267  1.00  0.00     0.311 C 
ATOM     24  O   UNL     1      35.805  27.573  27.194  1.00  0.00    -0.252 OA
BRANCH  23  25
ATOM     25  C   UNL     1      37.409  25.744  27.316  1.00  0.00     0.126 C 
BRANCH  25  26
ATOM     26  C   UNL     1      38.287  26.140  26.131  1.00  0.00    -0.000 C 
ATOM     27  C   UNL     1      39.768  26.233  26.508  1.00  0.00     0.004 C 
ATOM     28  C   UNL     1      38.298  25.114  24.998  1.00  0.00     0.004 C 
ATOM     29  C   UNL     1      40.536  26.001  25.208  1.00  0.00     0.000 C 
ATOM     30  C   UNL     1      39.510  25.533  24.181  1.00  0.00     0.000 C 
ENDBRANCH  25  26
ENDBRANCH  23  25
ENDBRANCH  22  23
ENDBRANCH   6  22
TORSDOF 8
ENDMDL
MODEL 11
REMARK VINA RESULT:    -5.977      1.993      7.213
REMARK INTER + INTRA:          -9.938
REMARK INTER:                  -8.188
REMARK INTRA:                  -1.750
REMARK UNBOUND:                -1.340
REMARK SMILES O=C(CC1CCCC1)Oc1ccccc1C(=O)C[C@]1(O)C(=O)Oc2ccccc21
REMARK SMILES IDX 15 1 14 2 13 3 12 4 11 5 10 6 16 7 17 8 18 9 19 10 29 11
REMARK SMILES IDX 21 12 28 13 24 14 23 15 22 16 27 17 25 18 26 19 20 20 9 22
REMARK SMILES IDX 2 23 1 24 3 25 4 26 5 27 8 28 6 29 7 30
REMARK H PARENT 20 21
ROOT
ATOM      1  C   UNL     1      32.750  28.725  27.772  1.00  0.00     0.060 A 
ATOM      2  C   UNL     1      32.110  29.874  28.247  1.00  0.00     0.016 A 
ATOM      3  C   UNL     1      32.776  30.708  29.147  1.00  0.00     0.001 A 
ATOM      4  C   UNL     1      34.071  30.394  29.572  1.00  0.00     0.004 A 
ATOM      5  C   UNL     1      34.713  29.250  29.090  1.00  0.00     0.048 A 
ATOM      6  C   UNL     1      34.054  28.432  28.174  1.00  0.00     0.141 A 
ENDROOT
BRANCH   1   7
ATOM      7  C   UNL     1      32.043  27.810  26.859  1.00  0.00     0.170 C 
ATOM      8  O   UNL     1      32.463  27.631  25.720  1.00  0.00    -0.294 OA
BRANCH   7   9
ATOM      9  C   UNL     1      30.853  27.056  27.414  1.00  0.00     0.133 C 
BRANCH   9  10
ATOM     10  C   UNL     1      31.201  25.587  27.662  1.00  0.00     0.198 C 
ATOM     11  C   UNL     1      30.608  25.107  28.937  1.00  0.00     0.038 A 
ATOM     12  C   UNL     1      30.433  24.690  26.655  1.00  0.00     0.348 C 
ATOM     13  C   UNL     1      30.860  25.480  30.248  1.00  0.00     0.011 A 
ATOM     14  C   UNL     1      29.668  24.136  28.644  1.00  0.00     0.137 A 
ATOM     15  O   UNL     1      29.522  23.856  27.300  1.00  0.00    -0.424 OA
ATOM     16  O   UNL     1      30.555  24.723  25.436  1.00  0.00    -0.248 OA
ATOM     17  C   UNL     1      30.129  24.859  31.263  1.00  0.00     0.001 A 
ATOM     18  C   UNL     1      28.935  23.506  29.631  1.00  0.00     0.047 A 
ATOM     19  C   UNL     1      29.169  23.881  30.957  1.00  0.00     0.004 A 
BRANCH  10  20
ATOM     20  O   UNL     1      32.600  25.372  27.730  1.00  0.00    -0.373 OA
ATOM     21  H   UNL     1      32.753  24.798  28.512  1.00  0.00     0.212 HD
ENDBRANCH  10  20
ENDBRANCH   9  10
ENDBRANCH   7   9
ENDBRANCH   1   7
BRANCH   6  22
ATOM     22  O   UNL     1      34.657  27.255  27.726  1.00  0.00    -0.426 OA
BRANCH  22  23
ATOM     23  C   UNL     1      35.748  27.475  26.883  1.00  0.00     0.311 C 
ATOM     24  O   UNL     1      35.778  28.216  25.911  1.00  0.00    -0.252 OA
BRANCH  23  25
ATOM     25  C   UNL     1      36.916  26.673  27.413  1.00  0.00     0.126 C 
BRANCH  25  26
ATOM     26  C   UNL     1      37.139  25.371  26.648  1.00  0.00    -0.000 C 
ATOM     27  C   UNL     1      35.825  24.662  26.308  1.00  0.00     0.004 C 
ATOM     28  C   UNL     1      37.776  25.561  25.272  1.00  0.00     0.004 C 
ATOM     29  C   UNL     1      36.127  23.806  25.081  1.00  0.00     0.000 C 
ATOM     30  C   UNL     1      37.510  24.227  24.593  1.00  0.00     0.000 C 
ENDBRANCH  25  26
ENDBRANCH  23  25
ENDBRANCH  22  23
ENDBRANCH   6  22
TORSDOF 8
ENDMDL
MODEL 12
REMARK VINA RESULT:    -5.974      2.754      7.295
REMARK INTER + INTRA:          -9.933
REMARK INTER:                  -6.764
REMARK INTRA:                  -3.169
REMARK UNBOUND:                -1.340
REMARK SMILES O=C(CC1CCCC1)Oc1ccccc1C(=O)C[C@]1(O)C(=O)Oc2ccccc21
REMARK SMILES IDX 15 1 14 2 13 3 12 4 11 5 10 6 16 7 17 8 18 9 19 10 29 11
REMARK SMILES IDX 21 12 28 13 24 14 23 15 22 16 27 17 25 18 26 19 20 20 9 22
REMARK SMILES IDX 2 23 1 24 3 25 4 26 5 27 8 28 6 29 7 30
REMARK H PARENT 20 21
ROOT
ATOM      1  C   UNL     1      29.996  26.410  25.510  1.00  0.00     0.060 A 
ATOM      2  C   UNL     1      29.171  25.678  24.652  1.00  0.00     0.016 A 
ATOM      3  C   UNL     1      29.712  24.623  23.914  1.00  0.00     0.001 A 
ATOM      4  C   UNL     1      31.069  24.305  24.033  1.00  0.00     0.004 A 
ATOM      5  C   UNL     1      31.891  25.033  24.898  1.00  0.00     0.048 A 
ATOM      6  C   UNL     1      31.343  26.070  25.649  1.00  0.00     0.141 A 
ENDROOT
BRANCH   1   7
ATOM      7  C   UNL     1      29.450  27.557  26.259  1.00  0.00     0.170 C 
ATOM      8  O   UNL     1      29.258  28.627  25.692  1.00  0.00    -0.294 OA
BRANCH   7   9
ATOM      9  C   UNL     1      29.068  27.324  27.706  1.00  0.00     0.133 C 
BRANCH   9  10
ATOM     10  C   UNL     1      27.550  27.244  27.866  1.00  0.00     0.198 C 
ATOM     11  C   UNL     1      27.131  25.890  28.311  1.00  0.00     0.038 A 
ATOM     12  C   UNL     1      27.109  28.079  29.098  1.00  0.00     0.348 C 
ATOM     13  C   UNL     1      27.218  24.661  27.675  1.00  0.00     0.011 A 
ATOM     14  C   UNL     1      26.584  25.995  29.577  1.00  0.00     0.137 A 
ATOM     15  O   UNL     1      26.553  27.276  30.092  1.00  0.00    -0.424 OA
ATOM     16  O   UNL     1      27.262  29.288  29.230  1.00  0.00    -0.248 OA
ATOM     17  C   UNL     1      26.750  23.533  28.351  1.00  0.00     0.001 A 
ATOM     18  C   UNL     1      26.113  24.893  30.264  1.00  0.00     0.047 A 
ATOM     19  C   UNL     1      26.205  23.646  29.639  1.00  0.00     0.004 A 
BRANCH  10  20
ATOM     20  O   UNL     1      26.867  27.529  26.658  1.00  0.00    -0.373 OA
ATOM     21  H   UNL     1      27.323  28.302  26.259  1.00  0.00     0.212 HD
ENDBRANCH  10  20
ENDBRANCH   9  10
ENDBRANCH   7   9
ENDBRANCH   1   7
BRANCH   6  22
ATOM     22  O   UNL     1      32.160  26.845  26.476  1.00  0.00    -0.426 OA
BRANCH  22  23
ATOM     23  C   UNL     1      32.733  26.123  27.524  1.00  0.00     0.311 C 
ATOM     24  O   UNL     1      33.755  25.456  27.473  1.00  0.00    -0.252 OA
BRANCH  23  25
ATOM     25  C   UNL     1      31.892  26.352  28.761  1.00  0.00     0.126 C 
BRANCH  25  26
ATOM     26  C   UNL     1      31.472  25.052  29.442  1.00  0.00    -0.000 C 
ATOM     27  C   UNL     1      30.508  25.289  30.608  1.00  0.00     0.004 C 
ATOM     28  C   UNL     1      30.675  24.108  28.541  1.00  0.00     0.004 C 
ATOM     29  C   UNL     1      29.719  23.990  30.757  1.00  0.00     0.000 C 
ATOM     30  C   UNL     1      30.056  23.139  29.536  1.00  0.00     0.000 C 
ENDBRANCH  25  26
ENDBRANCH  23  25
ENDBRANCH  22  23
ENDBRANCH   6  22
TORSDOF 8
ENDMDL
MODEL 13
REMARK VINA RESULT:    -5.940      1.844      7.668
REMARK INTER + INTRA:          -9.885
REMARK INTER:                  -8.623
REMARK INTRA:                  -1.262
REMARK UNBOUND:                -1.340
REMARK SMILES O=C(CC1CCCC1)Oc1ccccc1C(=O)C[C@]1(O)C(=O)Oc2ccccc21
REMARK SMILES IDX 15 1 14 2 13 3 12 4 11 5 10 6 16 7 17 8 18 9 19 10 29 11
REMARK SMILES IDX 21 12 28 13 24 14 23 15 22 16 27 17 25 18 26 19 20 20 9 22
REMARK SMILES IDX 2 23 1 24 3 25 4 26 5 27 8 28 6 29 7 30
REMARK H PARENT 20 21
ROOT
ATOM      1  C   UNL     1      29.860  25.122  29.692  1.00  0.00     0.060 A 
ATOM      2  C   UNL     1      30.138  25.332  31.047  1.00  0.00     0.016 A 
ATOM      3  C   UNL     1      30.767  26.514  31.443  1.00  0.00     0.001 A 
ATOM      4  C   UNL     1      31.118  27.477  30.491  1.00  0.00     0.004 A 
ATOM      5  C   UNL     1      30.832  27.270  29.139  1.00  0.00     0.048 A 
ATOM      6  C   UNL     1      30.184  26.099  28.750  1.00  0.00     0.141 A 
ENDROOT
BRANCH   1   7
ATOM      7  C   UNL     1      29.240  23.859  29.253  1.00  0.00     0.170 C 
ATOM      8  O   UNL     1      29.713  23.238  28.306  1.00  0.00    -0.294 OA
BRANCH   7   9
ATOM      9  C   UNL     1      28.073  23.338  30.065  1.00  0.00     0.133 C 
BRANCH   9  10
ATOM     10  C   UNL     1      26.743  23.816  29.482  1.00  0.00     0.198 C 
ATOM     11  C   UNL     1      26.698  25.299  29.403  1.00  0.00     0.038 A 
ATOM     12  C   UNL     1      26.678  23.467  27.971  1.00  0.00     0.348 C 
ATOM     13  C   UNL     1      26.706  26.258  30.404  1.00  0.00     0.011 A 
ATOM     14  C   UNL     1      26.644  25.666  28.071  1.00  0.00     0.137 A 
ATOM     15  O   UNL     1      26.636  24.612  27.178  1.00  0.00    -0.424 OA
ATOM     16  O   UNL     1      26.709  22.335  27.500  1.00  0.00    -0.248 OA
ATOM     17  C   UNL     1      26.670  27.603  30.031  1.00  0.00     0.001 A 
ATOM     18  C   UNL     1      26.605  26.989  27.678  1.00  0.00     0.047 A 
ATOM     19  C   UNL     1      26.625  27.968  28.676  1.00  0.00     0.004 A 
BRANCH  10  20
ATOM     20  O   UNL     1      25.634  23.393  30.255  1.00  0.00    -0.373 OA
ATOM     21  H   UNL     1      25.010  24.151  30.282  1.00  0.00     0.212 HD
ENDBRANCH  10  20
ENDBRANCH   9  10
ENDBRANCH   7   9
ENDBRANCH   1   7
BRANCH   6  22
ATOM     22  O   UNL     1      29.941  25.849  27.398  1.00  0.00    -0.426 OA
BRANCH  22  23
ATOM     23  C   UNL     1      31.000  26.218  26.565  1.00  0.00     0.311 C 
ATOM     24  O   UNL     1      31.076  27.239  25.897  1.00  0.00    -0.252 OA
BRANCH  23  25
ATOM     25  C   UNL     1      32.069  25.154  26.672  1.00  0.00     0.126 C 
BRANCH  25  26
ATOM     26  C   UNL     1      33.457  25.667  26.297  1.00  0.00    -0.000 C 
ATOM     27  C   UNL     1      34.489  25.414  27.399  1.00  0.00     0.004 C 
ATOM     28  C   UNL     1      34.078  24.956  25.094  1.00  0.00     0.004 C 
ATOM     29  C   UNL     1      35.842  25.373  26.691  1.00  0.00     0.000 C 
ATOM     30  C   UNL     1      35.544  25.346  25.196  1.00  0.00     0.000 C 
ENDBRANCH  25  26
ENDBRANCH  23  25
ENDBRANCH  22  23
ENDBRANCH   6  22
TORSDOF 8
ENDMDL
MODEL 14
REMARK VINA RESULT:    -5.910      2.261      7.487
REMARK INTER + INTRA:          -9.841
REMARK INTER:                  -7.698
REMARK INTRA:                  -2.143
REMARK UNBOUND:                -1.340
REMARK SMILES O=C(CC1CCCC1)Oc1ccccc1C(=O)C[C@]1(O)C(=O)Oc2ccccc21
REMARK SMILES IDX 15 1 14 2 13 3 12 4 11 5 10 6 16 7 17 8 18 9 19 10 29 11
REMARK SMILES IDX 21 12 28 13 24 14 23 15 22 16 27 17 25 18 26 19 20 20 9 22
REMARK SMILES IDX 2 23 1 24 3 25 4 26 5 27 8 28 6 29 7 30
REMARK H PARENT 20 21
ROOT
ATOM      1  C   UNL     1      33.499  26.143  27.283  1.00  0.00     0.060 A 
ATOM      2  C   UNL     1      34.635  25.329  27.218  1.00  0.00     0.016 A 
ATOM      3  C   UNL     1      35.889  25.915  27.033  1.00  0.00     0.001 A 
ATOM      4  C   UNL     1      36.006  27.303  26.911  1.00  0.00     0.004 A 
ATOM      5  C   UNL     1      34.872  28.116  26.986  1.00  0.00     0.048 A 
ATOM      6  C   UNL     1      33.624  27.530  27.193  1.00  0.00     0.141 A 
ENDROOT
BRANCH   1   7
ATOM      7  C   UNL     1      32.164  25.537  27.431  1.00  0.00     0.170 C 
ATOM      8  O   UNL     1      31.436  25.406  26.452  1.00  0.00    -0.294 OA
BRANCH   7   9
ATOM      9  C   UNL     1      31.782  25.019  28.802  1.00  0.00     0.133 C 
BRANCH   9  10
ATOM     10  C   UNL     1      30.468  25.642  29.277  1.00  0.00     0.198 C 
ATOM     11  C   UNL     1      29.348  24.673  29.163  1.00  0.00     0.038 A 
ATOM     12  C   UNL     1      30.505  25.829  30.817  1.00  0.00     0.348 C 
ATOM     13  C   UNL     1      28.769  24.086  28.048  1.00  0.00     0.011 A 
ATOM     14  C   UNL     1      28.890  24.382  30.435  1.00  0.00     0.137 A 
ATOM     15  O   UNL     1      29.550  25.040  31.455  1.00  0.00    -0.424 OA
ATOM     16  O   UNL     1      31.297  26.537  31.430  1.00  0.00    -0.248 OA
ATOM     17  C   UNL     1      27.722  23.185  28.246  1.00  0.00     0.001 A 
ATOM     18  C   UNL     1      27.853  23.496  30.655  1.00  0.00     0.047 A 
ATOM     19  C   UNL     1      27.268  22.888  29.541  1.00  0.00     0.004 A 
BRANCH  10  20
ATOM     20  O   UNL     1      30.119  26.793  28.529  1.00  0.00    -0.373 OA
ATOM     21  H   UNL     1      29.248  27.091  28.871  1.00  0.00     0.212 HD
ENDBRANCH  10  20
ENDBRANCH   9  10
ENDBRANCH   7   9
ENDBRANCH   1   7
BRANCH   6  22
ATOM     22  O   UNL     1      32.473  28.321  27.213  1.00  0.00    -0.426 OA
BRANCH  22  23
ATOM     23  C   UNL     1      32.592  29.455  28.019  1.00  0.00     0.311 C 
ATOM     24  O   UNL     1      32.680  30.612  27.637  1.00  0.00    -0.252 OA
BRANCH  23  25
ATOM     25  C   UNL     1      32.541  29.007  29.463  1.00  0.00     0.126 C 
BRANCH  25  26
ATOM     26  C   UNL     1      33.404  29.867  30.383  1.00  0.00    -0.000 C 
ATOM     27  C   UNL     1      33.109  29.614  31.864  1.00  0.00     0.004 C 
ATOM     28  C   UNL     1      34.900  29.568  30.289  1.00  0.00     0.004 C 
ATOM     29  C   UNL     1      34.383  30.007  32.608  1.00  0.00     0.000 C 
ATOM     30  C   UNL     1      35.452  30.229  31.542  1.00  0.00     0.000 C 
ENDBRANCH  25  26
ENDBRANCH  23  25
ENDBRANCH  22  23
ENDBRANCH   6  22
TORSDOF 8
ENDMDL
MODEL 15
REMARK VINA RESULT:    -5.902      1.792      8.403
REMARK INTER + INTRA:          -9.830
REMARK INTER:                  -8.134
REMARK INTRA:                  -1.696
REMARK UNBOUND:                -1.340
REMARK SMILES O=C(CC1CCCC1)Oc1ccccc1C(=O)C[C@]1(O)C(=O)Oc2ccccc21
REMARK SMILES IDX 15 1 14 2 13 3 12 4 11 5 10 6 16 7 17 8 18 9 19 10 29 11
REMARK SMILES IDX 21 12 28 13 24 14 23 15 22 16 27 17 25 18 26 19 20 20 9 22
REMARK SMILES IDX 2 23 1 24 3 25 4 26 5 27 8 28 6 29 7 30
REMARK H PARENT 20 21
ROOT
ATOM      1  C   UNL     1      33.414  26.915  27.659  1.00  0.00     0.060 A 
ATOM      2  C   UNL     1      33.316  28.209  28.181  1.00  0.00     0.016 A 
ATOM      3  C   UNL     1      34.478  28.957  28.381  1.00  0.00     0.001 A 
ATOM      4  C   UNL     1      35.728  28.415  28.063  1.00  0.00     0.004 A 
ATOM      5  C   UNL     1      35.823  27.126  27.534  1.00  0.00     0.048 A 
ATOM      6  C   UNL     1      34.661  26.390  27.315  1.00  0.00     0.141 A 
ENDROOT
BRANCH   1   7
ATOM      7  C   UNL     1      32.202  26.094  27.488  1.00  0.00     0.170 C 
ATOM      8  O   UNL     1      31.645  26.040  26.396  1.00  0.00    -0.294 OA
BRANCH   7   9
ATOM      9  C   UNL     1      31.742  25.275  28.676  1.00  0.00     0.133 C 
BRANCH   9  10
ATOM     10  C   UNL     1      30.414  25.801  29.222  1.00  0.00     0.198 C 
ATOM     11  C   UNL     1      29.355  24.762  29.138  1.00  0.00     0.038 A 
ATOM     12  C   UNL     1      30.509  25.960  30.763  1.00  0.00     0.348 C 
ATOM     13  C   UNL     1      28.766  24.159  28.037  1.00  0.00     0.011 A 
ATOM     14  C   UNL     1      28.976  24.417  30.422  1.00  0.00     0.137 A 
ATOM     15  O   UNL     1      29.637  25.098  31.425  1.00  0.00    -0.424 OA
ATOM     16  O   UNL     1      31.279  26.708  31.355  1.00  0.00    -0.248 OA
ATOM     17  C   UNL     1      27.789  23.186  28.261  1.00  0.00     0.001 A 
ATOM     18  C   UNL     1      28.011  23.460  30.668  1.00  0.00     0.047 A 
ATOM     19  C   UNL     1      27.416  22.835  29.568  1.00  0.00     0.004 A 
BRANCH  10  20
ATOM     20  O   UNL     1      29.956  26.940  28.516  1.00  0.00    -0.373 OA
ATOM     21  H   UNL     1      29.074  26.704  28.152  1.00  0.00     0.212 HD
ENDBRANCH  10  20
ENDBRANCH   9  10
ENDBRANCH   7   9
ENDBRANCH   1   7
BRANCH   6  22
ATOM     22  O   UNL     1      34.740  25.079  26.840  1.00  0.00    -0.426 OA
BRANCH  22  23
ATOM     23  C   UNL     1      35.128  24.995  25.501  1.00  0.00     0.311 C 
ATOM     24  O   UNL     1      34.542  25.476  24.544  1.00  0.00    -0.252 OA
BRANCH  23  25
ATOM     25  C   UNL     1      36.440  24.244  25.444  1.00  0.00     0.126 C 
BRANCH  25  26
ATOM     26  C   UNL     1      37.547  25.035  24.751  1.00  0.00    -0.000 C 
ATOM     27  C   UNL     1      38.616  25.525  25.733  1.00  0.00     0.004 C 
ATOM     28  C   UNL     1      38.366  24.215  23.754  1.00  0.00     0.004 C 
ATOM     29  C   UNL     1      39.884  25.705  24.900  1.00  0.00     0.000 C 
ATOM     30  C   UNL     1      39.595  25.082  23.538  1.00  0.00     0.000 C 
ENDBRANCH  25  26
ENDBRANCH  23  25
ENDBRANCH  22  23
ENDBRANCH   6  22
TORSDOF 8
ENDMDL
MODEL 16
REMARK VINA RESULT:    -5.887      2.064      6.302
REMARK INTER + INTRA:          -9.808
REMARK INTER:                  -6.684
REMARK INTRA:                  -3.124
REMARK UNBOUND:                -1.340
REMARK SMILES O=C(CC1CCCC1)Oc1ccccc1C(=O)C[C@]1(O)C(=O)Oc2ccccc21
REMARK SMILES IDX 15 1 14 2 13 3 12 4 11 5 10 6 16 7 17 8 18 9 19 10 29 11
REMARK SMILES IDX 21 12 28 13 24 14 23 15 22 16 27 17 25 18 26 19 20 20 9 22
REMARK SMILES IDX 2 23 1 24 3 25 4 26 5 27 8 28 6 29 7 30
REMARK H PARENT 20 21
ROOT
ATOM      1  C   UNL     1      32.832  26.634  26.442  1.00  0.00     0.060 A 
ATOM      2  C   UNL     1      33.544  25.441  26.601  1.00  0.00     0.016 A 
ATOM      3  C   UNL     1      34.805  25.471  27.201  1.00  0.00     0.001 A 
ATOM      4  C   UNL     1      35.350  26.684  27.635  1.00  0.00     0.004 A 
ATOM      5  C   UNL     1      34.632  27.873  27.483  1.00  0.00     0.048 A 
ATOM      6  C   UNL     1      33.366  27.837  26.904  1.00  0.00     0.141 A 
ENDROOT
BRANCH   1   7
ATOM      7  C   UNL     1      31.521  26.626  25.768  1.00  0.00     0.170 C 
ATOM      8  O   UNL     1      31.459  26.587  24.543  1.00  0.00    -0.294 OA
BRANCH   7   9
ATOM      9  C   UNL     1      30.287  26.582  26.645  1.00  0.00     0.133 C 
BRANCH   9  10
ATOM     10  C   UNL     1      29.615  25.210  26.576  1.00  0.00     0.198 C 
ATOM     11  C   UNL     1      29.548  24.581  27.921  1.00  0.00     0.038 A 
ATOM     12  C   UNL     1      28.100  25.385  26.288  1.00  0.00     0.348 C 
ATOM     13  C   UNL     1      30.557  24.142  28.764  1.00  0.00     0.011 A 
ATOM     14  C   UNL     1      28.219  24.468  28.286  1.00  0.00     0.137 A 
ATOM     15  O   UNL     1      27.318  24.937  27.351  1.00  0.00    -0.424 OA
ATOM     16  O   UNL     1      27.621  25.895  25.281  1.00  0.00    -0.248 OA
ATOM     17  C   UNL     1      30.196  23.595  29.997  1.00  0.00     0.001 A 
ATOM     18  C   UNL     1      27.838  23.927  29.499  1.00  0.00     0.047 A 
ATOM     19  C   UNL     1      28.844  23.492  30.365  1.00  0.00     0.004 A 
BRANCH  10  20
ATOM     20  O   UNL     1      30.302  24.318  25.718  1.00  0.00    -0.373 OA
ATOM     21  H   UNL     1      30.664  24.863  24.985  1.00  0.00     0.212 HD
ENDBRANCH  10  20
ENDBRANCH   9  10
ENDBRANCH   7   9
ENDBRANCH   1   7
BRANCH   6  22
ATOM     22  O   UNL     1      32.658  29.023  26.692  1.00  0.00    -0.426 OA
BRANCH  22  23
ATOM     23  C   UNL     1      32.393  29.730  27.866  1.00  0.00     0.311 C 
ATOM     24  O   UNL     1      33.188  30.407  28.501  1.00  0.00    -0.252 OA
BRANCH  23  25
ATOM     25  C   UNL     1      30.927  29.556  28.193  1.00  0.00     0.126 C 
BRANCH  25  26
ATOM     26  C   UNL     1      30.695  28.925  29.564  1.00  0.00    -0.000 C 
ATOM     27  C   UNL     1      29.312  28.278  29.681  1.00  0.00     0.004 C 
ATOM     28  C   UNL     1      31.632  27.758  29.876  1.00  0.00     0.004 C 
ATOM     29  C   UNL     1      29.452  27.205  30.759  1.00  0.00     0.000 C 
ATOM     30  C   UNL     1      30.944  27.082  31.052  1.00  0.00     0.000 C 
ENDBRANCH  25  26
ENDBRANCH  23  25
ENDBRANCH  22  23
ENDBRANCH   6  22
TORSDOF 8
ENDMDL
MODEL 17
REMARK VINA RESULT:    -5.873      2.095      3.503
REMARK INTER + INTRA:          -9.788
REMARK INTER:                  -7.222
REMARK INTRA:                  -2.566
REMARK UNBOUND:                -1.340
REMARK SMILES O=C(CC1CCCC1)Oc1ccccc1C(=O)C[C@]1(O)C(=O)Oc2ccccc21
REMARK SMILES IDX 15 1 14 2 13 3 12 4 11 5 10 6 16 7 17 8 18 9 19 10 29 11
REMARK SMILES IDX 21 12 28 13 24 14 23 15 22 16 27 17 25 18 26 19 20 20 9 22
REMARK SMILES IDX 2 23 1 24 3 25 4 26 5 27 8 28 6 29 7 30
REMARK H PARENT 20 21
ROOT
ATOM      1  C   UNL     1      31.421  26.213  25.661  1.00  0.00     0.060 A 
ATOM      2  C   UNL     1      31.456  27.549  25.249  1.00  0.00     0.016 A 
ATOM      3  C   UNL     1      30.287  28.312  25.297  1.00  0.00     0.001 A 
ATOM      4  C   UNL     1      29.093  27.743  25.751  1.00  0.00     0.004 A 
ATOM      5  C   UNL     1      29.062  26.411  26.171  1.00  0.00     0.048 A 
ATOM      6  C   UNL     1      30.234  25.658  26.142  1.00  0.00     0.141 A 
ENDROOT
BRANCH   1   7
ATOM      7  C   UNL     1      32.634  25.381  25.571  1.00  0.00     0.170 C 
ATOM      8  O   UNL     1      32.848  24.711  24.566  1.00  0.00    -0.294 OA
BRANCH   7   9
ATOM      9  C   UNL     1      33.619  25.461  26.719  1.00  0.00     0.133 C 
BRANCH   9  10
ATOM     10  C   UNL     1      34.921  26.131  26.278  1.00  0.00     0.198 C 
ATOM     11  C   UNL     1      35.383  27.115  27.289  1.00  0.00     0.038 A 
ATOM     12  C   UNL     1      36.086  25.107  26.349  1.00  0.00     0.348 C 
ATOM     13  C   UNL     1      34.814  28.304  27.720  1.00  0.00     0.011 A 
ATOM     14  C   UNL     1      36.579  26.669  27.820  1.00  0.00     0.137 A 
ATOM     15  O   UNL     1      37.037  25.475  27.298  1.00  0.00    -0.424 OA
ATOM     16  O   UNL     1      36.163  24.070  25.700  1.00  0.00    -0.248 OA
ATOM     17  C   UNL     1      35.474  29.030  28.713  1.00  0.00     0.001 A 
ATOM     18  C   UNL     1      37.252  27.372  28.801  1.00  0.00     0.047 A 
ATOM     19  C   UNL     1      36.684  28.566  29.254  1.00  0.00     0.004 A 
BRANCH  10  20
ATOM     20  O   UNL     1      34.782  26.814  25.045  1.00  0.00    -0.373 OA
ATOM     21  H   UNL     1      35.484  27.501  25.028  1.00  0.00     0.212 HD
ENDBRANCH  10  20
ENDBRANCH   9  10
ENDBRANCH   7   9
ENDBRANCH   1   7
BRANCH   6  22
ATOM     22  O   UNL     1      30.210  24.309  26.504  1.00  0.00    -0.426 OA
BRANCH  22  23
ATOM     23  C   UNL     1      29.692  24.085  27.781  1.00  0.00     0.311 C 
ATOM     24  O   UNL     1      28.595  23.618  28.048  1.00  0.00    -0.252 OA
BRANCH  23  25
ATOM     25  C   UNL     1      30.751  24.476  28.788  1.00  0.00     0.126 C 
BRANCH  25  26
ATOM     26  C   UNL     1      30.386  25.731  29.577  1.00  0.00    -0.000 C 
ATOM     27  C   UNL     1      30.447  25.506  31.091  1.00  0.00     0.004 C 
ATOM     28  C   UNL     1      31.356  26.895  29.377  1.00  0.00     0.004 C 
ATOM     29  C   UNL     1      30.690  26.885  31.700  1.00  0.00     0.000 C 
ATOM     30  C   UNL     1      31.015  27.817  30.537  1.00  0.00     0.000 C 
ENDBRANCH  25  26
ENDBRANCH  23  25
ENDBRANCH  22  23
ENDBRANCH   6  22
TORSDOF 8
ENDMDL
MODEL 18
REMARK VINA RESULT:    -5.861      1.821      3.545
REMARK INTER + INTRA:          -9.771
REMARK INTER:                  -8.322
REMARK INTRA:                  -1.450
REMARK UNBOUND:                -1.340
REMARK SMILES O=C(CC1CCCC1)Oc1ccccc1C(=O)C[C@]1(O)C(=O)Oc2ccccc21
REMARK SMILES IDX 15 1 14 2 13 3 12 4 11 5 10 6 16 7 17 8 18 9 19 10 29 11
REMARK SMILES IDX 21 12 28 13 24 14 23 15 22 16 27 17 25 18 26 19 20 20 9 22
REMARK SMILES IDX 2 23 1 24 3 25 4 26 5 27 8 28 6 29 7 30
REMARK H PARENT 20 21
ROOT
ATOM      1  C   UNL     1      33.422  26.084  26.441  1.00  0.00     0.060 A 
ATOM      2  C   UNL     1      33.444  26.313  25.061  1.00  0.00     0.016 A 
ATOM      3  C   UNL     1      32.380  25.866  24.275  1.00  0.00     0.001 A 
ATOM      4  C   UNL     1      31.303  25.195  24.864  1.00  0.00     0.004 A 
ATOM      5  C   UNL     1      31.278  24.975  26.244  1.00  0.00     0.048 A 
ATOM      6  C   UNL     1      32.331  25.441  27.028  1.00  0.00     0.141 A 
ENDROOT
BRANCH   1   7
ATOM      7  C   UNL     1      34.560  26.506  27.277  1.00  0.00     0.170 C 
ATOM      8  O   UNL     1      34.443  27.460  28.040  1.00  0.00    -0.294 OA
BRANCH   7   9
ATOM      9  C   UNL     1      35.820  25.669  27.211  1.00  0.00     0.133 C 
BRANCH   9  10
ATOM     10  C   UNL     1      37.057  26.553  27.040  1.00  0.00     0.198 C 
ATOM     11  C   UNL     1      37.981  26.404  28.194  1.00  0.00     0.038 A 
ATOM     12  C   UNL     1      37.952  25.986  25.906  1.00  0.00     0.348 C 
ATOM     13  C   UNL     1      37.820  26.736  29.530  1.00  0.00     0.011 A 
ATOM     14  C   UNL     1      39.156  25.832  27.742  1.00  0.00     0.137 A 
ATOM     15  O   UNL     1      39.187  25.558  26.389  1.00  0.00    -0.424 OA
ATOM     16  O   UNL     1      37.623  25.869  24.731  1.00  0.00    -0.248 OA
ATOM     17  C   UNL     1      38.870  26.464  30.409  1.00  0.00     0.001 A 
ATOM     18  C   UNL     1      40.210  25.557  28.593  1.00  0.00     0.047 A 
ATOM     19  C   UNL     1      40.057  25.875  29.945  1.00  0.00     0.004 A 
BRANCH  10  20
ATOM     20  O   UNL     1      36.724  27.925  26.929  1.00  0.00    -0.373 OA
ATOM     21  H   UNL     1      37.574  28.417  26.939  1.00  0.00     0.212 HD
ENDBRANCH  10  20
ENDBRANCH   9  10
ENDBRANCH   7   9
ENDBRANCH   1   7
BRANCH   6  22
ATOM     22  O   UNL     1      32.352  25.181  28.400  1.00  0.00    -0.426 OA
BRANCH  22  23
ATOM     23  C   UNL     1      31.395  25.903  29.117  1.00  0.00     0.311 C 
ATOM     24  O   UNL     1      31.129  27.088  28.983  1.00  0.00    -0.252 OA
BRANCH  23  25
ATOM     25  C   UNL     1      30.702  24.947  30.062  1.00  0.00     0.126 C 
BRANCH  25  26
ATOM     26  C   UNL     1      29.364  24.447  29.524  1.00  0.00    -0.000 C 
ATOM     27  C   UNL     1      29.468  23.048  28.909  1.00  0.00     0.004 C 
ATOM     28  C   UNL     1      28.295  24.255  30.600  1.00  0.00     0.004 C 
ATOM     29  C   UNL     1      28.066  22.452  29.008  1.00  0.00     0.000 C 
ATOM     30  C   UNL     1      27.258  23.397  29.892  1.00  0.00     0.000 C 
ENDBRANCH  25  26
ENDBRANCH  23  25
ENDBRANCH  22  23
ENDBRANCH   6  22
TORSDOF 8
ENDMDL
MODEL 19
REMARK VINA RESULT:    -5.851      1.985      7.734
REMARK INTER + INTRA:          -9.757
REMARK INTER:                  -7.877
REMARK INTRA:                  -1.880
REMARK UNBOUND:                -1.340
REMARK SMILES O=C(CC1CCCC1)Oc1ccccc1C(=O)C[C@]1(O)C(=O)Oc2ccccc21
REMARK SMILES IDX 15 1 14 2 13 3 12 4 11 5 10 6 16 7 17 8 18 9 19 10 29 11
REMARK SMILES IDX 21 12 28 13 24 14 23 15 22 16 27 17 25 18 26 19 20 20 9 22
REMARK SMILES IDX 2 23 1 24 3 25 4 26 5 27 8 28 6 29 7 30
REMARK H PARENT 20 21
ROOT
ATOM      1  C   UNL     1      32.458  27.153  28.311  1.00  0.00     0.060 A 
ATOM      2  C   UNL     1      32.508  28.417  28.909  1.00  0.00     0.016 A 
ATOM      3  C   UNL     1      33.503  29.318  28.526  1.00  0.00     0.001 A 
ATOM      4  C   UNL     1      34.443  28.957  27.556  1.00  0.00     0.004 A 
ATOM      5  C   UNL     1      34.387  27.698  26.953  1.00  0.00     0.048 A 
ATOM      6  C   UNL     1      33.379  26.809  27.321  1.00  0.00     0.141 A 
ENDROOT
BRANCH   1   7
ATOM      7  C   UNL     1      31.443  26.173  28.739  1.00  0.00     0.170 C 
ATOM      8  O   UNL     1      31.740  25.287  29.533  1.00  0.00    -0.294 OA
BRANCH   7   9
ATOM      9  C   UNL     1      30.031  26.366  28.226  1.00  0.00     0.133 C 
BRANCH   9  10
ATOM     10  C   UNL     1      29.488  25.073  27.616  1.00  0.00     0.198 C 
ATOM     11  C   UNL     1      28.575  24.381  28.561  1.00  0.00     0.038 A 
ATOM     12  C   UNL     1      28.488  25.412  26.478  1.00  0.00     0.348 C 
ATOM     13  C   UNL     1      28.822  23.800  29.795  1.00  0.00     0.011 A 
ATOM     14  C   UNL     1      27.303  24.379  28.018  1.00  0.00     0.137 A 
ATOM     15  O   UNL     1      27.197  24.985  26.782  1.00  0.00    -0.424 OA
ATOM     16  O   UNL     1      28.761  26.021  25.449  1.00  0.00    -0.248 OA
ATOM     17  C   UNL     1      27.750  23.224  30.480  1.00  0.00     0.001 A 
ATOM     18  C   UNL     1      26.228  23.813  28.676  1.00  0.00     0.047 A 
ATOM     19  C   UNL     1      26.459  23.234  29.927  1.00  0.00     0.004 A 
BRANCH  10  20
ATOM     20  O   UNL     1      30.521  24.167  27.274  1.00  0.00    -0.373 OA
ATOM     21  H   UNL     1      30.556  24.144  26.292  1.00  0.00     0.212 HD
ENDBRANCH  10  20
ENDBRANCH   9  10
ENDBRANCH   7   9
ENDBRANCH   1   7
BRANCH   6  22
ATOM     22  O   UNL     1      33.341  25.526  26.771  1.00  0.00    -0.426 OA
BRANCH  22  23
ATOM     23  C   UNL     1      32.850  25.495  25.465  1.00  0.00     0.311 C 
ATOM     24  O   UNL     1      31.895  26.124  25.033  1.00  0.00    -0.252 OA
BRANCH  23  25
ATOM     25  C   UNL     1      33.741  24.581  24.653  1.00  0.00     0.126 C 
BRANCH  25  26
ATOM     26  C   UNL     1      35.223  24.916  24.798  1.00  0.00    -0.000 C 
ATOM     27  C   UNL     1      36.082  23.670  25.035  1.00  0.00     0.004 C 
ATOM     28  C   UNL     1      35.850  25.514  23.538  1.00  0.00     0.004 C 
ATOM     29  C   UNL     1      37.479  24.036  24.539  1.00  0.00     0.000 C 
ATOM     30  C   UNL     1      37.340  25.366  23.804  1.00  0.00     0.000 C 
ENDBRANCH  25  26
ENDBRANCH  23  25
ENDBRANCH  22  23
ENDBRANCH   6  22
TORSDOF 8
ENDMDL
MODEL 20
REMARK VINA RESULT:    -5.817      2.147      4.869
REMARK INTER + INTRA:          -9.708
REMARK INTER:                  -7.658
REMARK INTRA:                  -2.051
REMARK UNBOUND:                -1.340
REMARK SMILES O=C(CC1CCCC1)Oc1ccccc1C(=O)C[C@]1(O)C(=O)Oc2ccccc21
REMARK SMILES IDX 15 1 14 2 13 3 12 4 11 5 10 6 16 7 17 8 18 9 19 10 29 11
REMARK SMILES IDX 21 12 28 13 24 14 23 15 22 16 27 17 25 18 26 19 20 20 9 22
REMARK SMILES IDX 2 23 1 24 3 25 4 26 5 27 8 28 6 29 7 30
REMARK H PARENT 20 21
ROOT
ATOM      1  C   UNL     1      30.227  25.308  28.545  1.00  0.00     0.060 A 
ATOM      2  C   UNL     1      29.574  24.100  28.814  1.00  0.00     0.016 A 
ATOM      3  C   UNL     1      29.467  23.657  30.134  1.00  0.00     0.001 A 
ATOM      4  C   UNL     1      30.012  24.414  31.176  1.00  0.00     0.004 A 
ATOM      5  C   UNL     1      30.657  25.625  30.907  1.00  0.00     0.048 A 
ATOM      6  C   UNL     1      30.742  26.075  29.591  1.00  0.00     0.141 A 
ENDROOT
BRANCH   1   7
ATOM      7  C   UNL     1      30.389  25.765  27.153  1.00  0.00     0.170 C 
ATOM      8  O   UNL     1      29.698  26.682  26.722  1.00  0.00    -0.294 OA
BRANCH   7   9
ATOM      9  C   UNL     1      31.485  25.119  26.332  1.00  0.00     0.133 C 
BRANCH   9  10
ATOM     10  C   UNL     1      32.468  26.167  25.808  1.00  0.00     0.198 C 
ATOM     11  C   UNL     1      33.862  25.654  25.843  1.00  0.00     0.038 A 
ATOM     12  C   UNL     1      32.285  26.337  24.276  1.00  0.00     0.348 C 
ATOM     13  C   UNL     1      34.670  25.302  26.914  1.00  0.00     0.011 A 
ATOM     14  C   UNL     1      34.323  25.550  24.544  1.00  0.00     0.137 A 
ATOM     15  O   UNL     1      33.420  25.939  23.574  1.00  0.00    -0.424 OA
ATOM     16  O   UNL     1      31.263  26.724  23.721  1.00  0.00    -0.248 OA
ATOM     17  C   UNL     1      35.955  24.828  26.644  1.00  0.00     0.001 A 
ATOM     18  C   UNL     1      35.591  25.087  24.252  1.00  0.00     0.047 A 
ATOM     19  C   UNL     1      36.413  24.716  25.321  1.00  0.00     0.004 A 
BRANCH  10  20
ATOM     20  O   UNL     1      32.431  27.363  26.566  1.00  0.00    -0.373 OA
ATOM     21  H   UNL     1      31.988  28.034  26.001  1.00  0.00     0.212 HD
ENDBRANCH  10  20
ENDBRANCH   9  10
ENDBRANCH   7   9
ENDBRANCH   1   7
BRANCH   6  22
ATOM     22  O   UNL     1      31.432  27.253  29.296  1.00  0.00    -0.426 OA
BRANCH  22  23
ATOM     23  C   UNL     1      30.710  28.410  29.597  1.00  0.00     0.311 C 
ATOM     24  O   UNL     1      29.502  28.489  29.765  1.00  0.00    -0.252 OA
BRANCH  23  25
ATOM     25  C   UNL     1      31.694  29.550  29.732  1.00  0.00     0.126 C 
BRANCH  25  26
ATOM     26  C   UNL     1      32.984  29.142  30.439  1.00  0.00    -0.000 C 
ATOM     27  C   UNL     1      34.234  29.576  29.669  1.00  0.00     0.004 C 
ATOM     28  C   UNL     1      33.185  29.810  31.799  1.00  0.00     0.004 C 
ATOM     29  C   UNL     1      35.341  29.687  30.715  1.00  0.00     0.000 C 
ATOM     30  C   UNL     1      34.660  29.568  32.075  1.00  0.00     0.000 C 
ENDBRANCH  25  26
ENDBRANCH  23  25
ENDBRANCH  22  23
ENDBRANCH   6  22
TORSDOF 8
ENDMDL
