MODEL 1
REMARK VINA RESULT:    -5.818      0.000      0.000
REMARK INTER + INTRA:          -8.524
REMARK INTER:                  -7.689
REMARK INTRA:                  -0.834
REMARK UNBOUND:                -0.834
REMARK SMILES O=C(/C=C/c1ccccc1)Oc1ccccc1C(=O)O
REMARK SMILES IDX 17 1 16 2 15 3 14 4 13 5 12 6 18 7 19 8 20 9 11 11 2 12 1 13
REMARK SMILES IDX 3 14 4 15 5 16 6 17 10 18 7 19 9 20 8 21
REMARK H PARENT 20 10
ROOT
ATOM      1  C   UNL     1      37.123  25.824  26.661  1.00  0.00     0.102 A 
ATOM      2  C   UNL     1      38.136  25.614  25.713  1.00  0.00     0.019 A 
ATOM      3  C   UNL     1      37.971  24.668  24.694  1.00  0.00     0.001 A 
ATOM      4  C   UNL     1      36.797  23.920  24.616  1.00  0.00     0.004 A 
ATOM      5  C   UNL     1      35.782  24.116  25.548  1.00  0.00     0.048 A 
ATOM      6  C   UNL     1      35.942  25.076  26.554  1.00  0.00     0.145 A 
ENDROOT
BRANCH   1   7
ATOM      7  C   UNL     1      37.303  26.804  27.763  1.00  0.00     0.339 C 
ATOM      8  O   UNL     1      37.410  28.012  27.662  1.00  0.00    -0.246 OA
BRANCH   7   9
ATOM      9  O   UNL     1      37.340  26.216  28.976  1.00  0.00    -0.478 OA
ATOM     10  H   UNL     1      37.713  26.910  29.559  1.00  0.00     0.297 HD
ENDBRANCH   7   9
ENDBRANCH   1   7
BRANCH   6  11
ATOM     11  O   UNL     1      34.898  25.208  27.475  1.00  0.00    -0.422 OA
BRANCH  11  12
ATOM     12  C   UNL     1      33.824  25.908  26.953  1.00  0.00     0.336 C 
ATOM     13  O   UNL     1      33.855  26.893  26.232  1.00  0.00    -0.246 OA
BRANCH  12  14
ATOM     14  C   UNL     1      32.592  25.228  27.413  1.00  0.00     0.094 C 
ATOM     15  C   UNL     1      32.168  25.394  28.675  1.00  0.00     0.015 C 
BRANCH  15  16
ATOM     16  C   UNL     1      30.959  24.764  29.219  1.00  0.00    -0.025 A 
ATOM     17  C   UNL     1      30.200  23.843  28.484  1.00  0.00     0.008 A 
ATOM     18  C   UNL     1      30.579  25.054  30.536  1.00  0.00     0.008 A 
ATOM     19  C   UNL     1      29.069  23.245  29.048  1.00  0.00     0.001 A 
ATOM     20  C   UNL     1      29.449  24.456  31.099  1.00  0.00     0.001 A 
ATOM     21  C   UNL     1      28.692  23.554  30.353  1.00  0.00     0.000 A 
ENDBRANCH  15  16
ENDBRANCH  12  14
ENDBRANCH  11  12
ENDBRANCH   6  11
TORSDOF 6
ENDMDL
MODEL 2
REMARK VINA RESULT:    -5.747      3.147      8.027
REMARK INTER + INTRA:          -8.430
REMARK INTER:                  -7.319
REMARK INTRA:                  -1.111
REMARK UNBOUND:                -0.834
REMARK SMILES O=C(/C=C/c1ccccc1)Oc1ccccc1C(=O)O
REMARK SMILES IDX 17 1 16 2 15 3 14 4 13 5 12 6 18 7 19 8 20 9 11 11 2 12 1 13
REMARK SMILES IDX 3 14 4 15 5 16 6 17 10 18 7 19 9 20 8 21
REMARK H PARENT 20 10
ROOT
ATOM      1  C   UNL     1      28.105  23.861  28.684  1.00  0.00     0.102 A 
ATOM      2  C   UNL     1      27.782  23.742  30.044  1.00  0.00     0.019 A 
ATOM      3  C   UNL     1      28.790  23.716  31.014  1.00  0.00     0.001 A 
ATOM      4  C   UNL     1      30.129  23.802  30.637  1.00  0.00     0.004 A 
ATOM      5  C   UNL     1      30.467  23.921  29.291  1.00  0.00     0.048 A 
ATOM      6  C   UNL     1      29.455  23.965  28.325  1.00  0.00     0.145 A 
ENDROOT
BRANCH   1   7
ATOM      7  C   UNL     1      27.042  23.857  27.646  1.00  0.00     0.339 C 
ATOM      8  O   UNL     1      26.374  22.906  27.282  1.00  0.00    -0.246 OA
BRANCH   7   9
ATOM      9  O   UNL     1      26.853  25.073  27.096  1.00  0.00    -0.478 OA
ATOM     10  H   UNL     1      27.683  25.551  27.299  1.00  0.00     0.297 HD
ENDBRANCH   7   9
ENDBRANCH   1   7
BRANCH   6  11
ATOM     11  O   UNL     1      29.860  24.059  26.990  1.00  0.00    -0.422 OA
BRANCH  11  12
ATOM     12  C   UNL     1      30.307  25.328  26.665  1.00  0.00     0.336 C 
ATOM     13  O   UNL     1      29.728  26.390  26.839  1.00  0.00    -0.246 OA
BRANCH  12  14
ATOM     14  C   UNL     1      31.654  25.180  26.070  1.00  0.00     0.094 C 
ATOM     15  C   UNL     1      32.743  25.464  26.801  1.00  0.00     0.015 C 
BRANCH  15  16
ATOM     16  C   UNL     1      34.116  25.344  26.298  1.00  0.00    -0.025 A 
ATOM     17  C   UNL     1      35.232  25.404  27.145  1.00  0.00     0.008 A 
ATOM     18  C   UNL     1      34.319  25.108  24.931  1.00  0.00     0.008 A 
ATOM     19  C   UNL     1      36.523  25.259  26.631  1.00  0.00     0.001 A 
ATOM     20  C   UNL     1      35.610  24.963  24.418  1.00  0.00     0.001 A 
ATOM     21  C   UNL     1      36.712  25.042  25.267  1.00  0.00     0.000 A 
ENDBRANCH  15  16
ENDBRANCH  12  14
ENDBRANCH  11  12
ENDBRANCH   6  11
TORSDOF 6
ENDMDL
MODEL 3
REMARK VINA RESULT:    -5.622      2.228      7.169
REMARK INTER + INTRA:          -8.264
REMARK INTER:                  -7.188
REMARK INTRA:                  -1.076
REMARK UNBOUND:                -0.834
REMARK SMILES O=C(/C=C/c1ccccc1)Oc1ccccc1C(=O)O
REMARK SMILES IDX 17 1 16 2 15 3 14 4 13 5 12 6 18 7 19 8 20 9 11 11 2 12 1 13
REMARK SMILES IDX 3 14 4 15 5 16 6 17 10 18 7 19 9 20 8 21
REMARK H PARENT 20 10
ROOT
ATOM      1  C   UNL     1      30.145  25.473  30.329  1.00  0.00     0.102 A 
ATOM      2  C   UNL     1      29.006  24.742  30.698  1.00  0.00     0.019 A 
ATOM      3  C   UNL     1      28.666  23.566  30.019  1.00  0.00     0.001 A 
ATOM      4  C   UNL     1      29.454  23.113  28.962  1.00  0.00     0.004 A 
ATOM      5  C   UNL     1      30.588  23.827  28.583  1.00  0.00     0.048 A 
ATOM      6  C   UNL     1      30.936  24.992  29.277  1.00  0.00     0.145 A 
ENDROOT
BRANCH   1   7
ATOM      7  C   UNL     1      30.495  26.739  31.024  1.00  0.00     0.339 C 
ATOM      8  O   UNL     1      30.826  26.870  32.188  1.00  0.00    -0.246 OA
BRANCH   7   9
ATOM      9  O   UNL     1      30.418  27.813  30.213  1.00  0.00    -0.478 OA
ATOM     10  H   UNL     1      31.349  27.979  29.957  1.00  0.00     0.297 HD
ENDBRANCH   7   9
ENDBRANCH   1   7
BRANCH   6  11
ATOM     11  O   UNL     1      32.071  25.678  28.832  1.00  0.00    -0.422 OA
BRANCH  11  12
ATOM     12  C   UNL     1      31.854  26.325  27.627  1.00  0.00     0.336 C 
ATOM     13  O   UNL     1      30.887  26.999  27.307  1.00  0.00    -0.246 OA
BRANCH  12  14
ATOM     14  C   UNL     1      33.036  26.072  26.774  1.00  0.00     0.094 C 
ATOM     15  C   UNL     1      34.138  25.520  27.304  1.00  0.00     0.015 C 
BRANCH  15  16
ATOM     16  C   UNL     1      35.355  25.229  26.537  1.00  0.00    -0.025 A 
ATOM     17  C   UNL     1      35.342  24.422  25.391  1.00  0.00     0.008 A 
ATOM     18  C   UNL     1      36.562  25.821  26.932  1.00  0.00     0.008 A 
ATOM     19  C   UNL     1      36.518  24.190  24.672  1.00  0.00     0.001 A 
ATOM     20  C   UNL     1      37.737  25.588  26.214  1.00  0.00     0.001 A 
ATOM     21  C   UNL     1      37.716  24.771  25.085  1.00  0.00     0.000 A 
ENDBRANCH  15  16
ENDBRANCH  12  14
ENDBRANCH  11  12
ENDBRANCH   6  11
TORSDOF 6
ENDMDL
MODEL 4
REMARK VINA RESULT:    -5.560      3.415      8.052
REMARK INTER + INTRA:          -8.182
REMARK INTER:                  -7.425
REMARK INTRA:                  -0.757
REMARK UNBOUND:                -0.834
REMARK SMILES O=C(/C=C/c1ccccc1)Oc1ccccc1C(=O)O
REMARK SMILES IDX 17 1 16 2 15 3 14 4 13 5 12 6 18 7 19 8 20 9 11 11 2 12 1 13
REMARK SMILES IDX 3 14 4 15 5 16 6 17 10 18 7 19 9 20 8 21
REMARK H PARENT 20 10
ROOT
ATOM      1  C   UNL     1      28.291  23.941  29.662  1.00  0.00     0.102 A 
ATOM      2  C   UNL     1      27.113  23.241  29.964  1.00  0.00     0.019 A 
ATOM      3  C   UNL     1      25.930  23.932  30.251  1.00  0.00     0.001 A 
ATOM      4  C   UNL     1      25.913  25.326  30.246  1.00  0.00     0.004 A 
ATOM      5  C   UNL     1      27.074  26.036  29.948  1.00  0.00     0.048 A 
ATOM      6  C   UNL     1      28.250  25.342  29.643  1.00  0.00     0.145 A 
ENDROOT
BRANCH   1   7
ATOM      7  C   UNL     1      29.558  23.215  29.387  1.00  0.00     0.339 C 
ATOM      8  O   UNL     1      29.795  22.482  28.444  1.00  0.00    -0.246 OA
BRANCH   7   9
ATOM      9  O   UNL     1      30.499  23.445  30.323  1.00  0.00    -0.478 OA
ATOM     10  H   UNL     1      30.068  24.078  30.935  1.00  0.00     0.297 HD
ENDBRANCH   7   9
ENDBRANCH   1   7
BRANCH   6  11
ATOM     11  O   UNL     1      29.387  26.110  29.378  1.00  0.00    -0.422 OA
BRANCH  11  12
ATOM     12  C   UNL     1      29.619  26.254  28.020  1.00  0.00     0.336 C 
ATOM     13  O   UNL     1      28.799  26.478  27.144  1.00  0.00    -0.246 OA
BRANCH  12  14
ATOM     14  C   UNL     1      31.076  26.106  27.806  1.00  0.00     0.094 C 
ATOM     15  C   UNL     1      31.534  25.583  26.658  1.00  0.00     0.015 C 
BRANCH  15  16
ATOM     16  C   UNL     1      32.959  25.402  26.356  1.00  0.00    -0.025 A 
ATOM     17  C   UNL     1      33.950  25.485  27.343  1.00  0.00     0.008 A 
ATOM     18  C   UNL     1      33.337  25.082  25.045  1.00  0.00     0.008 A 
ATOM     19  C   UNL     1      35.294  25.280  27.019  1.00  0.00     0.001 A 
ATOM     20  C   UNL     1      34.681  24.877  24.722  1.00  0.00     0.001 A 
ATOM     21  C   UNL     1      35.660  24.979  25.708  1.00  0.00     0.000 A 
ENDBRANCH  15  16
ENDBRANCH  12  14
ENDBRANCH  11  12
ENDBRANCH   6  11
TORSDOF 6
ENDMDL
MODEL 5
REMARK VINA RESULT:    -5.539      2.905      7.729
REMARK INTER + INTRA:          -8.155
REMARK INTER:                  -7.436
REMARK INTRA:                  -0.719
REMARK UNBOUND:                -0.834
REMARK SMILES O=C(/C=C/c1ccccc1)Oc1ccccc1C(=O)O
REMARK SMILES IDX 17 1 16 2 15 3 14 4 13 5 12 6 18 7 19 8 20 9 11 11 2 12 1 13
REMARK SMILES IDX 3 14 4 15 5 16 6 17 10 18 7 19 9 20 8 21
REMARK H PARENT 20 10
ROOT
ATOM      1  C   UNL     1      29.014  23.785  29.291  1.00  0.00     0.102 A 
ATOM      2  C   UNL     1      28.805  24.042  30.654  1.00  0.00     0.019 A 
ATOM      3  C   UNL     1      29.724  24.806  31.382  1.00  0.00     0.001 A 
ATOM      4  C   UNL     1      30.862  25.316  30.759  1.00  0.00     0.004 A 
ATOM      5  C   UNL     1      31.084  25.071  29.406  1.00  0.00     0.048 A 
ATOM      6  C   UNL     1      30.153  24.323  28.677  1.00  0.00     0.145 A 
ENDROOT
BRANCH   1   7
ATOM      7  C   UNL     1      28.059  22.949  28.518  1.00  0.00     0.339 C 
ATOM      8  O   UNL     1      27.722  21.804  28.761  1.00  0.00    -0.246 OA
BRANCH   7   9
ATOM      9  O   UNL     1      27.551  23.596  27.451  1.00  0.00    -0.478 OA
ATOM     10  H   UNL     1      28.318  23.686  26.847  1.00  0.00     0.297 HD
ENDBRANCH   7   9
ENDBRANCH   1   7
BRANCH   6  11
ATOM     11  O   UNL     1      30.446  24.090  27.329  1.00  0.00    -0.422 OA
BRANCH  11  12
ATOM     12  C   UNL     1      30.754  25.256  26.650  1.00  0.00     0.336 C 
ATOM     13  O   UNL     1      30.077  26.269  26.563  1.00  0.00    -0.246 OA
BRANCH  12  14
ATOM     14  C   UNL     1      32.092  25.071  26.044  1.00  0.00     0.094 C 
ATOM     15  C   UNL     1      33.190  25.433  26.725  1.00  0.00     0.015 C 
BRANCH  15  16
ATOM     16  C   UNL     1      34.555  25.284  26.208  1.00  0.00    -0.025 A 
ATOM     17  C   UNL     1      34.818  24.944  24.874  1.00  0.00     0.008 A 
ATOM     18  C   UNL     1      35.635  25.542  27.064  1.00  0.00     0.008 A 
ATOM     19  C   UNL     1      36.134  24.837  24.414  1.00  0.00     0.001 A 
ATOM     20  C   UNL     1      36.949  25.435  26.604  1.00  0.00     0.001 A 
ATOM     21  C   UNL     1      37.199  25.079  25.279  1.00  0.00     0.000 A 
ENDBRANCH  15  16
ENDBRANCH  12  14
ENDBRANCH  11  12
ENDBRANCH   6  11
TORSDOF 6
ENDMDL
MODEL 6
REMARK VINA RESULT:    -5.449      3.157      7.640
REMARK INTER + INTRA:          -8.036
REMARK INTER:                  -7.073
REMARK INTRA:                  -0.963
REMARK UNBOUND:                -0.834
REMARK SMILES O=C(/C=C/c1ccccc1)Oc1ccccc1C(=O)O
REMARK SMILES IDX 17 1 16 2 15 3 14 4 13 5 12 6 18 7 19 8 20 9 11 11 2 12 1 13
REMARK SMILES IDX 3 14 4 15 5 16 6 17 10 18 7 19 9 20 8 21
REMARK H PARENT 20 10
ROOT
ATOM      1  C   UNL     1      28.333  24.615  27.886  1.00  0.00     0.102 A 
ATOM      2  C   UNL     1      27.308  23.658  27.842  1.00  0.00     0.019 A 
ATOM      3  C   UNL     1      26.715  23.198  29.023  1.00  0.00     0.001 A 
ATOM      4  C   UNL     1      27.141  23.683  30.258  1.00  0.00     0.004 A 
ATOM      5  C   UNL     1      28.157  24.634  30.320  1.00  0.00     0.048 A 
ATOM      6  C   UNL     1      28.735  25.106  29.136  1.00  0.00     0.145 A 
ENDROOT
BRANCH   1   7
ATOM      7  C   UNL     1      28.990  25.086  26.639  1.00  0.00     0.339 C 
ATOM      8  O   UNL     1      29.503  24.399  25.775  1.00  0.00    -0.246 OA
BRANCH   7   9
ATOM      9  O   UNL     1      28.975  26.428  26.522  1.00  0.00    -0.478 OA
ATOM     10  H   UNL     1      29.907  26.686  26.682  1.00  0.00     0.297 HD
ENDBRANCH   7   9
ENDBRANCH   1   7
BRANCH   6  11
ATOM     11  O   UNL     1      29.768  26.040  29.266  1.00  0.00    -0.422 OA
BRANCH  11  12
ATOM     12  C   UNL     1      30.889  25.503  29.875  1.00  0.00     0.336 C 
ATOM     13  O   UNL     1      31.123  25.427  31.071  1.00  0.00    -0.246 OA
BRANCH  12  14
ATOM     14  C   UNL     1      31.774  25.001  28.801  1.00  0.00     0.094 C 
ATOM     15  C   UNL     1      32.445  25.868  28.027  1.00  0.00     0.015 C 
BRANCH  15  16
ATOM     16  C   UNL     1      33.347  25.465  26.942  1.00  0.00    -0.025 A 
ATOM     17  C   UNL     1      32.902  25.294  25.623  1.00  0.00     0.008 A 
ATOM     18  C   UNL     1      34.709  25.295  27.221  1.00  0.00     0.008 A 
ATOM     19  C   UNL     1      33.797  24.933  24.612  1.00  0.00     0.001 A 
ATOM     20  C   UNL     1      35.604  24.935  26.211  1.00  0.00     0.001 A 
ATOM     21  C   UNL     1      35.148  24.751  24.907  1.00  0.00     0.000 A 
ENDBRANCH  15  16
ENDBRANCH  12  14
ENDBRANCH  11  12
ENDBRANCH   6  11
TORSDOF 6
ENDMDL
MODEL 7
REMARK VINA RESULT:    -5.364      3.658      7.999
REMARK INTER + INTRA:          -7.923
REMARK INTER:                  -7.189
REMARK INTRA:                  -0.735
REMARK UNBOUND:                -0.834
REMARK SMILES O=C(/C=C/c1ccccc1)Oc1ccccc1C(=O)O
REMARK SMILES IDX 17 1 16 2 15 3 14 4 13 5 12 6 18 7 19 8 20 9 11 11 2 12 1 13
REMARK SMILES IDX 3 14 4 15 5 16 6 17 10 18 7 19 9 20 8 21
REMARK H PARENT 20 10
ROOT
ATOM      1  C   UNL     1      27.913  25.647  30.088  1.00  0.00     0.102 A 
ATOM      2  C   UNL     1      26.526  25.854  30.035  1.00  0.00     0.019 A 
ATOM      3  C   UNL     1      25.644  24.769  30.082  1.00  0.00     0.001 A 
ATOM      4  C   UNL     1      26.135  23.468  30.177  1.00  0.00     0.004 A 
ATOM      5  C   UNL     1      27.509  23.245  30.232  1.00  0.00     0.048 A 
ATOM      6  C   UNL     1      28.388  24.333  30.204  1.00  0.00     0.145 A 
ENDROOT
BRANCH   1   7
ATOM      7  C   UNL     1      28.858  26.791  30.007  1.00  0.00     0.339 C 
ATOM      8  O   UNL     1      28.952  27.603  29.105  1.00  0.00    -0.246 OA
BRANCH   7   9
ATOM      9  O   UNL     1      29.662  26.874  31.085  1.00  0.00    -0.478 OA
ATOM     10  H   UNL     1      29.052  27.122  31.812  1.00  0.00     0.297 HD
ENDBRANCH   7   9
ENDBRANCH   1   7
BRANCH   6  11
ATOM     11  O   UNL     1      29.756  24.042  30.236  1.00  0.00    -0.422 OA
BRANCH  11  12
ATOM     12  C   UNL     1      30.288  23.882  28.967  1.00  0.00     0.336 C 
ATOM     13  O   UNL     1      29.844  23.206  28.053  1.00  0.00    -0.246 OA
BRANCH  12  14
ATOM     14  C   UNL     1      31.513  24.709  28.898  1.00  0.00     0.094 C 
ATOM     15  C   UNL     1      31.846  25.317  27.750  1.00  0.00     0.015 C 
BRANCH  15  16
ATOM     16  C   UNL     1      33.038  26.158  27.588  1.00  0.00    -0.025 A 
ATOM     17  C   UNL     1      32.991  27.554  27.707  1.00  0.00     0.008 A 
ATOM     18  C   UNL     1      34.276  25.542  27.357  1.00  0.00     0.008 A 
ATOM     19  C   UNL     1      34.154  28.318  27.571  1.00  0.00     0.001 A 
ATOM     20  C   UNL     1      35.437  26.306  27.222  1.00  0.00     0.001 A 
ATOM     21  C   UNL     1      35.376  27.694  27.326  1.00  0.00     0.000 A 
ENDBRANCH  15  16
ENDBRANCH  12  14
ENDBRANCH  11  12
ENDBRANCH   6  11
TORSDOF 6
ENDMDL
MODEL 8
REMARK VINA RESULT:    -5.349      1.411      2.452
REMARK INTER + INTRA:          -7.904
REMARK INTER:                  -7.089
REMARK INTRA:                  -0.815
REMARK UNBOUND:                -0.834
REMARK SMILES O=C(/C=C/c1ccccc1)Oc1ccccc1C(=O)O
REMARK SMILES IDX 17 1 16 2 15 3 14 4 13 5 12 6 18 7 19 8 20 9 11 11 2 12 1 13
REMARK SMILES IDX 3 14 4 15 5 16 6 17 10 18 7 19 9 20 8 21
REMARK H PARENT 20 10
ROOT
ATOM      1  C   UNL     1      37.052  25.146  25.832  1.00  0.00     0.102 A 
ATOM      2  C   UNL     1      38.375  25.615  25.833  1.00  0.00     0.019 A 
ATOM      3  C   UNL     1      38.847  26.406  26.886  1.00  0.00     0.001 A 
ATOM      4  C   UNL     1      38.004  26.741  27.944  1.00  0.00     0.004 A 
ATOM      5  C   UNL     1      36.689  26.283  27.959  1.00  0.00     0.048 A 
ATOM      6  C   UNL     1      36.226  25.477  26.914  1.00  0.00     0.145 A 
ENDROOT
BRANCH   1   7
ATOM      7  C   UNL     1      36.534  24.331  24.702  1.00  0.00     0.339 C 
ATOM      8  O   UNL     1      36.397  24.684  23.545  1.00  0.00    -0.246 OA
BRANCH   7   9
ATOM      9  O   UNL     1      36.203  23.080  25.076  1.00  0.00    -0.478 OA
ATOM     10  H   UNL     1      37.066  22.663  25.281  1.00  0.00     0.297 HD
ENDBRANCH   7   9
ENDBRANCH   1   7
BRANCH   6  11
ATOM     11  O   UNL     1      34.889  25.071  26.974  1.00  0.00    -0.422 OA
BRANCH  11  12
ATOM     12  C   UNL     1      34.012  26.140  26.908  1.00  0.00     0.336 C 
ATOM     13  O   UNL     1      34.011  27.055  26.099  1.00  0.00    -0.246 OA
BRANCH  12  14
ATOM     14  C   UNL     1      33.033  25.973  28.005  1.00  0.00     0.094 C 
ATOM     15  C   UNL     1      32.091  25.021  27.922  1.00  0.00     0.015 C 
BRANCH  15  16
ATOM     16  C   UNL     1      31.083  24.779  28.961  1.00  0.00    -0.025 A 
ATOM     17  C   UNL     1      30.178  23.710  28.892  1.00  0.00     0.008 A 
ATOM     18  C   UNL     1      31.056  25.614  30.086  1.00  0.00     0.008 A 
ATOM     19  C   UNL     1      29.249  23.498  29.914  1.00  0.00     0.001 A 
ATOM     20  C   UNL     1      30.127  25.402  31.108  1.00  0.00     0.001 A 
ATOM     21  C   UNL     1      29.222  24.346  31.020  1.00  0.00     0.000 A 
ENDBRANCH  15  16
ENDBRANCH  12  14
ENDBRANCH  11  12
ENDBRANCH   6  11
TORSDOF 6
ENDMDL
MODEL 9
REMARK VINA RESULT:    -5.223      3.108      8.028
REMARK INTER + INTRA:          -7.737
REMARK INTER:                  -6.760
REMARK INTRA:                  -0.977
REMARK UNBOUND:                -0.834
REMARK SMILES O=C(/C=C/c1ccccc1)Oc1ccccc1C(=O)O
REMARK SMILES IDX 17 1 16 2 15 3 14 4 13 5 12 6 18 7 19 8 20 9 11 11 2 12 1 13
REMARK SMILES IDX 3 14 4 15 5 16 6 17 10 18 7 19 9 20 8 21
REMARK H PARENT 20 10
ROOT
ATOM      1  C   UNL     1      27.717  25.692  29.715  1.00  0.00     0.102 A 
ATOM      2  C   UNL     1      26.686  24.918  30.270  1.00  0.00     0.019 A 
ATOM      3  C   UNL     1      26.657  23.532  30.080  1.00  0.00     0.001 A 
ATOM      4  C   UNL     1      27.652  22.906  29.332  1.00  0.00     0.004 A 
ATOM      5  C   UNL     1      28.683  23.658  28.775  1.00  0.00     0.048 A 
ATOM      6  C   UNL     1      28.720  25.042  28.983  1.00  0.00     0.145 A 
ENDROOT
BRANCH   1   7
ATOM      7  C   UNL     1      27.738  27.168  29.885  1.00  0.00     0.339 C 
ATOM      8  O   UNL     1      26.900  27.963  29.501  1.00  0.00    -0.246 OA
BRANCH   7   9
ATOM      9  O   UNL     1      28.831  27.597  30.547  1.00  0.00    -0.478 OA
ATOM     10  H   UNL     1      28.514  27.716  31.467  1.00  0.00     0.297 HD
ENDBRANCH   7   9
ENDBRANCH   1   7
BRANCH   6  11
ATOM     11  O   UNL     1      29.765  25.745  28.377  1.00  0.00    -0.422 OA
BRANCH  11  12
ATOM     12  C   UNL     1      30.976  25.539  29.016  1.00  0.00     0.336 C 
ATOM     13  O   UNL     1      31.230  25.698  30.201  1.00  0.00    -0.246 OA
BRANCH  12  14
ATOM     14  C   UNL     1      31.936  25.062  27.996  1.00  0.00     0.094 C 
ATOM     15  C   UNL     1      32.972  25.835  27.638  1.00  0.00     0.015 C 
BRANCH  15  16
ATOM     16  C   UNL     1      33.974  25.445  26.639  1.00  0.00    -0.025 A 
ATOM     17  C   UNL     1      35.305  25.170  26.983  1.00  0.00     0.008 A 
ATOM     18  C   UNL     1      33.576  25.291  25.305  1.00  0.00     0.008 A 
ATOM     19  C   UNL     1      36.224  24.776  26.006  1.00  0.00     0.001 A 
ATOM     20  C   UNL     1      34.495  24.897  24.329  1.00  0.00     0.001 A 
ATOM     21  C   UNL     1      35.819  24.642  24.679  1.00  0.00     0.000 A 
ENDBRANCH  15  16
ENDBRANCH  12  14
ENDBRANCH  11  12
ENDBRANCH   6  11
TORSDOF 6
ENDMDL
MODEL 10
REMARK VINA RESULT:    -5.213      2.989      7.457
REMARK INTER + INTRA:          -7.724
REMARK INTER:                  -7.350
REMARK INTRA:                  -0.373
REMARK UNBOUND:                -0.834
REMARK SMILES O=C(/C=C/c1ccccc1)Oc1ccccc1C(=O)O
REMARK SMILES IDX 17 1 16 2 15 3 14 4 13 5 12 6 18 7 19 8 20 9 11 11 2 12 1 13
REMARK SMILES IDX 3 14 4 15 5 16 6 17 10 18 7 19 9 20 8 21
REMARK H PARENT 20 10
ROOT
ATOM      1  C   UNL     1      29.243  24.693  29.756  1.00  0.00     0.102 A 
ATOM      2  C   UNL     1      28.642  23.816  30.670  1.00  0.00     0.019 A 
ATOM      3  C   UNL     1      27.492  23.100  30.318  1.00  0.00     0.001 A 
ATOM      4  C   UNL     1      26.929  23.257  29.053  1.00  0.00     0.004 A 
ATOM      5  C   UNL     1      27.513  24.123  28.132  1.00  0.00     0.048 A 
ATOM      6  C   UNL     1      28.674  24.823  28.482  1.00  0.00     0.145 A 
ENDROOT
BRANCH   1   7
ATOM      7  C   UNL     1      30.446  25.481  30.133  1.00  0.00     0.339 C 
ATOM      8  O   UNL     1      30.698  26.630  29.822  1.00  0.00    -0.246 OA
BRANCH   7   9
ATOM      9  O   UNL     1      31.300  24.781  30.905  1.00  0.00    -0.478 OA
ATOM     10  H   UNL     1      32.119  24.740  30.367  1.00  0.00     0.297 HD
ENDBRANCH   7   9
ENDBRANCH   1   7
BRANCH   6  11
ATOM     11  O   UNL     1      29.198  25.697  27.524  1.00  0.00    -0.422 OA
BRANCH  11  12
ATOM     12  C   UNL     1      29.679  25.028  26.411  1.00  0.00     0.336 C 
ATOM     13  O   UNL     1      29.051  24.669  25.428  1.00  0.00    -0.246 OA
BRANCH  12  14
ATOM     14  C   UNL     1      31.133  24.833  26.611  1.00  0.00     0.094 C 
ATOM     15  C   UNL     1      32.005  25.363  25.740  1.00  0.00     0.015 C 
BRANCH  15  16
ATOM     16  C   UNL     1      33.461  25.225  25.859  1.00  0.00    -0.025 A 
ATOM     17  C   UNL     1      34.152  25.557  27.033  1.00  0.00     0.008 A 
ATOM     18  C   UNL     1      34.181  24.695  24.780  1.00  0.00     0.008 A 
ATOM     19  C   UNL     1      35.537  25.387  27.114  1.00  0.00     0.001 A 
ATOM     20  C   UNL     1      35.565  24.525  24.862  1.00  0.00     0.001 A 
ATOM     21  C   UNL     1      36.243  24.874  26.028  1.00  0.00     0.000 A 
ENDBRANCH  15  16
ENDBRANCH  12  14
ENDBRANCH  11  12
ENDBRANCH   6  11
TORSDOF 6
ENDMDL
MODEL 11
REMARK VINA RESULT:    -5.168      2.222      7.657
REMARK INTER + INTRA:          -7.664
REMARK INTER:                  -6.636
REMARK INTRA:                  -1.028
REMARK UNBOUND:                -0.834
REMARK SMILES O=C(/C=C/c1ccccc1)Oc1ccccc1C(=O)O
REMARK SMILES IDX 17 1 16 2 15 3 14 4 13 5 12 6 18 7 19 8 20 9 11 11 2 12 1 13
REMARK SMILES IDX 3 14 4 15 5 16 6 17 10 18 7 19 9 20 8 21
REMARK H PARENT 20 10
ROOT
ATOM      1  C   UNL     1      30.043  24.719  29.326  1.00  0.00     0.102 A 
ATOM      2  C   UNL     1      29.184  25.127  30.358  1.00  0.00     0.019 A 
ATOM      3  C   UNL     1      29.581  26.118  31.262  1.00  0.00     0.001 A 
ATOM      4  C   UNL     1      30.839  26.708  31.149  1.00  0.00     0.004 A 
ATOM      5  C   UNL     1      31.703  26.316  30.130  1.00  0.00     0.048 A 
ATOM      6  C   UNL     1      31.296  25.337  29.216  1.00  0.00     0.145 A 
ENDROOT
BRANCH   1   7
ATOM      7  C   UNL     1      29.642  23.645  28.381  1.00  0.00     0.339 C 
ATOM      8  O   UNL     1      29.372  22.489  28.654  1.00  0.00    -0.246 OA
BRANCH   7   9
ATOM      9  O   UNL     1      29.592  24.072  27.104  1.00  0.00    -0.478 OA
ATOM     10  H   UNL     1      30.384  23.667  26.692  1.00  0.00     0.297 HD
ENDBRANCH   7   9
ENDBRANCH   1   7
BRANCH   6  11
ATOM     11  O   UNL     1      32.218  24.968  28.232  1.00  0.00    -0.422 OA
BRANCH  11  12
ATOM     12  C   UNL     1      32.342  25.929  27.242  1.00  0.00     0.336 C 
ATOM     13  O   UNL     1      31.448  26.455  26.599  1.00  0.00    -0.246 OA
BRANCH  12  14
ATOM     14  C   UNL     1      33.784  26.234  27.106  1.00  0.00     0.094 C 
ATOM     15  C   UNL     1      34.646  25.261  26.775  1.00  0.00     0.015 C 
BRANCH  15  16
ATOM     16  C   UNL     1      36.089  25.470  26.614  1.00  0.00    -0.025 A 
ATOM     17  C   UNL     1      36.872  26.085  27.602  1.00  0.00     0.008 A 
ATOM     18  C   UNL     1      36.717  24.993  25.456  1.00  0.00     0.008 A 
ATOM     19  C   UNL     1      38.249  26.242  27.421  1.00  0.00     0.001 A 
ATOM     20  C   UNL     1      38.094  25.151  25.275  1.00  0.00     0.001 A 
ATOM     21  C   UNL     1      38.859  25.778  26.257  1.00  0.00     0.000 A 
ENDBRANCH  15  16
ENDBRANCH  12  14
ENDBRANCH  11  12
ENDBRANCH   6  11
TORSDOF 6
ENDMDL
MODEL 12
REMARK VINA RESULT:    -5.050      2.610      7.681
REMARK INTER + INTRA:          -7.508
REMARK INTER:                  -6.628
REMARK INTRA:                  -0.880
REMARK UNBOUND:                -0.834
REMARK SMILES O=C(/C=C/c1ccccc1)Oc1ccccc1C(=O)O
REMARK SMILES IDX 17 1 16 2 15 3 14 4 13 5 12 6 18 7 19 8 20 9 11 11 2 12 1 13
REMARK SMILES IDX 3 14 4 15 5 16 6 17 10 18 7 19 9 20 8 21
REMARK H PARENT 20 10
ROOT
ATOM      1  C   UNL     1      29.435  24.728  27.844  1.00  0.00     0.102 A 
ATOM      2  C   UNL     1      28.172  25.323  27.980  1.00  0.00     0.019 A 
ATOM      3  C   UNL     1      27.821  26.432  27.200  1.00  0.00     0.001 A 
ATOM      4  C   UNL     1      28.729  26.959  26.283  1.00  0.00     0.004 A 
ATOM      5  C   UNL     1      29.986  26.380  26.136  1.00  0.00     0.048 A 
ATOM      6  C   UNL     1      30.327  25.260  26.903  1.00  0.00     0.145 A 
ENDROOT
BRANCH   1   7
ATOM      7  C   UNL     1      29.826  23.570  28.690  1.00  0.00     0.339 C 
ATOM      8  O   UNL     1      29.398  22.433  28.621  1.00  0.00    -0.246 OA
BRANCH   7   9
ATOM      9  O   UNL     1      30.761  23.892  29.606  1.00  0.00    -0.478 OA
ATOM     10  H   UNL     1      31.387  23.139  29.573  1.00  0.00     0.297 HD
ENDBRANCH   7   9
ENDBRANCH   1   7
BRANCH   6  11
ATOM     11  O   UNL     1      31.613  24.741  26.727  1.00  0.00    -0.422 OA
BRANCH  11  12
ATOM     12  C   UNL     1      32.585  25.541  27.302  1.00  0.00     0.336 C 
ATOM     13  O   UNL     1      32.516  26.159  28.354  1.00  0.00    -0.246 OA
BRANCH  12  14
ATOM     14  C   UNL     1      33.766  25.505  26.412  1.00  0.00     0.094 C 
ATOM     15  C   UNL     1      34.950  25.087  26.886  1.00  0.00     0.015 C 
BRANCH  15  16
ATOM     16  C   UNL     1      36.173  25.014  26.078  1.00  0.00    -0.025 A 
ATOM     17  C   UNL     1      37.301  25.798  26.355  1.00  0.00     0.008 A 
ATOM     18  C   UNL     1      36.234  24.091  25.024  1.00  0.00     0.008 A 
ATOM     19  C   UNL     1      38.456  25.680  25.577  1.00  0.00     0.001 A 
ATOM     20  C   UNL     1      37.389  23.974  24.247  1.00  0.00     0.001 A 
ATOM     21  C   UNL     1      38.499  24.771  24.521  1.00  0.00     0.000 A 
ENDBRANCH  15  16
ENDBRANCH  12  14
ENDBRANCH  11  12
ENDBRANCH   6  11
TORSDOF 6
ENDMDL
MODEL 13
REMARK VINA RESULT:    -5.034      3.366      7.666
REMARK INTER + INTRA:          -7.487
REMARK INTER:                  -6.533
REMARK INTRA:                  -0.954
REMARK UNBOUND:                -0.834
REMARK SMILES O=C(/C=C/c1ccccc1)Oc1ccccc1C(=O)O
REMARK SMILES IDX 17 1 16 2 15 3 14 4 13 5 12 6 18 7 19 8 20 9 11 11 2 12 1 13
REMARK SMILES IDX 3 14 4 15 5 16 6 17 10 18 7 19 9 20 8 21
REMARK H PARENT 20 10
ROOT
ATOM      1  C   UNL     1      28.841  26.466  30.357  1.00  0.00     0.102 A 
ATOM      2  C   UNL     1      28.005  27.576  30.162  1.00  0.00     0.019 A 
ATOM      3  C   UNL     1      26.642  27.401  29.898  1.00  0.00     0.001 A 
ATOM      4  C   UNL     1      26.101  26.119  29.820  1.00  0.00     0.004 A 
ATOM      5  C   UNL     1      26.917  25.006  30.011  1.00  0.00     0.048 A 
ATOM      6  C   UNL     1      28.276  25.185  30.293  1.00  0.00     0.145 A 
ENDROOT
BRANCH   1   7
ATOM      7  C   UNL     1      30.295  26.642  30.606  1.00  0.00     0.339 C 
ATOM      8  O   UNL     1      31.052  27.404  30.033  1.00  0.00    -0.246 OA
BRANCH   7   9
ATOM      9  O   UNL     1      30.752  25.840  31.588  1.00  0.00    -0.478 OA
ATOM     10  H   UNL     1      30.389  26.242  32.405  1.00  0.00     0.297 HD
ENDBRANCH   7   9
ENDBRANCH   1   7
BRANCH   6  11
ATOM     11  O   UNL     1      29.046  24.029  30.449  1.00  0.00    -0.422 OA
BRANCH  11  12
ATOM     12  C   UNL     1      29.200  23.336  29.260  1.00  0.00     0.336 C 
ATOM     13  O   UNL     1      28.426  22.535  28.759  1.00  0.00    -0.246 OA
BRANCH  12  14
ATOM     14  C   UNL     1      30.490  23.758  28.670  1.00  0.00     0.094 C 
ATOM     15  C   UNL     1      30.504  24.587  27.616  1.00  0.00     0.015 C 
BRANCH  15  16
ATOM     16  C   UNL     1      31.733  25.061  26.968  1.00  0.00    -0.025 A 
ATOM     17  C   UNL     1      32.860  25.461  27.700  1.00  0.00     0.008 A 
ATOM     18  C   UNL     1      31.802  25.066  25.568  1.00  0.00     0.008 A 
ATOM     19  C   UNL     1      34.020  25.882  27.045  1.00  0.00     0.001 A 
ATOM     20  C   UNL     1      32.961  25.487  24.914  1.00  0.00     0.001 A 
ATOM     21  C   UNL     1      34.070  25.898  25.652  1.00  0.00     0.000 A 
ENDBRANCH  15  16
ENDBRANCH  12  14
ENDBRANCH  11  12
ENDBRANCH   6  11
TORSDOF 6
ENDMDL
MODEL 14
REMARK VINA RESULT:    -5.024      4.474      7.550
REMARK INTER + INTRA:          -7.474
REMARK INTER:                  -6.410
REMARK INTRA:                  -1.064
REMARK UNBOUND:                -0.834
REMARK SMILES O=C(/C=C/c1ccccc1)Oc1ccccc1C(=O)O
REMARK SMILES IDX 17 1 16 2 15 3 14 4 13 5 12 6 18 7 19 8 20 9 11 11 2 12 1 13
REMARK SMILES IDX 3 14 4 15 5 16 6 17 10 18 7 19 9 20 8 21
REMARK H PARENT 20 10
ROOT
ATOM      1  C   UNL     1      28.423  24.187  29.786  1.00  0.00     0.102 A 
ATOM      2  C   UNL     1      27.180  24.405  30.399  1.00  0.00     0.019 A 
ATOM      3  C   UNL     1      25.999  24.357  29.649  1.00  0.00     0.001 A 
ATOM      4  C   UNL     1      26.048  24.097  28.280  1.00  0.00     0.004 A 
ATOM      5  C   UNL     1      27.273  23.877  27.656  1.00  0.00     0.048 A 
ATOM      6  C   UNL     1      28.450  23.907  28.412  1.00  0.00     0.145 A 
ENDROOT
BRANCH   1   7
ATOM      7  C   UNL     1      29.683  24.267  30.569  1.00  0.00     0.339 C 
ATOM      8  O   UNL     1      29.989  25.119  31.382  1.00  0.00    -0.246 OA
BRANCH   7   9
ATOM      9  O   UNL     1      30.526  23.251  30.297  1.00  0.00    -0.478 OA
ATOM     10  H   UNL     1      31.108  23.215  31.085  1.00  0.00     0.297 HD
ENDBRANCH   7   9
ENDBRANCH   1   7
BRANCH   6  11
ATOM     11  O   UNL     1      29.650  23.704  27.724  1.00  0.00    -0.422 OA
BRANCH  11  12
ATOM     12  C   UNL     1      29.839  24.634  26.715  1.00  0.00     0.336 C 
ATOM     13  O   UNL     1      29.652  24.482  25.517  1.00  0.00    -0.246 OA
BRANCH  12  14
ATOM     14  C   UNL     1      30.301  25.886  27.353  1.00  0.00     0.094 C 
ATOM     15  C   UNL     1      31.541  25.961  27.860  1.00  0.00     0.015 C 
BRANCH  15  16
ATOM     16  C   UNL     1      32.087  27.160  28.507  1.00  0.00    -0.025 A 
ATOM     17  C   UNL     1      31.514  27.715  29.660  1.00  0.00     0.008 A 
ATOM     18  C   UNL     1      33.252  27.740  27.986  1.00  0.00     0.008 A 
ATOM     19  C   UNL     1      32.080  28.843  30.261  1.00  0.00     0.001 A 
ATOM     20  C   UNL     1      33.816  28.867  28.587  1.00  0.00     0.001 A 
ATOM     21  C   UNL     1      33.228  29.421  29.723  1.00  0.00     0.000 A 
ENDBRANCH  15  16
ENDBRANCH  12  14
ENDBRANCH  11  12
ENDBRANCH   6  11
TORSDOF 6
ENDMDL
MODEL 15
REMARK VINA RESULT:    -4.971      2.504      7.259
REMARK INTER + INTRA:          -7.403
REMARK INTER:                  -6.590
REMARK INTRA:                  -0.813
REMARK UNBOUND:                -0.834
REMARK SMILES O=C(/C=C/c1ccccc1)Oc1ccccc1C(=O)O
REMARK SMILES IDX 17 1 16 2 15 3 14 4 13 5 12 6 18 7 19 8 20 9 11 11 2 12 1 13
REMARK SMILES IDX 3 14 4 15 5 16 6 17 10 18 7 19 9 20 8 21
REMARK H PARENT 20 10
ROOT
ATOM      1  C   UNL     1      29.452  24.930  28.376  1.00  0.00     0.102 A 
ATOM      2  C   UNL     1      29.115  23.715  28.991  1.00  0.00     0.019 A 
ATOM      3  C   UNL     1      29.276  23.548  30.372  1.00  0.00     0.001 A 
ATOM      4  C   UNL     1      29.779  24.590  31.150  1.00  0.00     0.004 A 
ATOM      5  C   UNL     1      30.117  25.803  30.555  1.00  0.00     0.048 A 
ATOM      6  C   UNL     1      29.937  25.972  29.178  1.00  0.00     0.145 A 
ENDROOT
BRANCH   1   7
ATOM      7  C   UNL     1      29.314  25.104  26.907  1.00  0.00     0.339 C 
ATOM      8  O   UNL     1      29.738  24.365  26.037  1.00  0.00    -0.246 OA
BRANCH   7   9
ATOM      9  O   UNL     1      28.631  26.219  26.581  1.00  0.00    -0.478 OA
ATOM     10  H   UNL     1      29.334  26.888  26.439  1.00  0.00     0.297 HD
ENDBRANCH   7   9
ENDBRANCH   1   7
BRANCH   6  11
ATOM     11  O   UNL     1      30.319  27.204  28.637  1.00  0.00    -0.422 OA
BRANCH  11  12
ATOM     12  C   UNL     1      31.673  27.447  28.791  1.00  0.00     0.336 C 
ATOM     13  O   UNL     1      32.204  28.265  29.526  1.00  0.00    -0.246 OA
BRANCH  12  14
ATOM     14  C   UNL     1      32.393  26.507  27.903  1.00  0.00     0.094 C 
ATOM     15  C   UNL     1      33.645  26.783  27.510  1.00  0.00     0.015 C 
BRANCH  15  16
ATOM     16  C   UNL     1      34.436  25.910  26.635  1.00  0.00    -0.025 A 
ATOM     17  C   UNL     1      35.701  25.430  27.002  1.00  0.00     0.008 A 
ATOM     18  C   UNL     1      33.888  25.500  25.412  1.00  0.00     0.008 A 
ATOM     19  C   UNL     1      36.412  24.579  26.151  1.00  0.00     0.001 A 
ATOM     20  C   UNL     1      34.599  24.651  24.562  1.00  0.00     0.001 A 
ATOM     21  C   UNL     1      35.862  24.192  24.930  1.00  0.00     0.000 A 
ENDBRANCH  15  16
ENDBRANCH  12  14
ENDBRANCH  11  12
ENDBRANCH   6  11
TORSDOF 6
ENDMDL
MODEL 16
REMARK VINA RESULT:    -4.848      3.059      7.544
REMARK INTER + INTRA:          -7.241
REMARK INTER:                  -6.750
REMARK INTRA:                  -0.491
REMARK UNBOUND:                -0.834
REMARK SMILES O=C(/C=C/c1ccccc1)Oc1ccccc1C(=O)O
REMARK SMILES IDX 17 1 16 2 15 3 14 4 13 5 12 6 18 7 19 8 20 9 11 11 2 12 1 13
REMARK SMILES IDX 3 14 4 15 5 16 6 17 10 18 7 19 9 20 8 21
REMARK H PARENT 20 10
ROOT
ATOM      1  C   UNL     1      29.047  24.883  30.138  1.00  0.00     0.102 A 
ATOM      2  C   UNL     1      27.711  24.642  30.490  1.00  0.00     0.019 A 
ATOM      3  C   UNL     1      27.052  23.495  30.036  1.00  0.00     0.001 A 
ATOM      4  C   UNL     1      27.718  22.580  29.221  1.00  0.00     0.004 A 
ATOM      5  C   UNL     1      29.045  22.803  28.863  1.00  0.00     0.048 A 
ATOM      6  C   UNL     1      29.706  23.943  29.335  1.00  0.00     0.145 A 
ENDROOT
BRANCH   1   7
ATOM      7  C   UNL     1      29.744  26.115  30.591  1.00  0.00     0.339 C 
ATOM      8  O   UNL     1      30.536  26.215  31.510  1.00  0.00    -0.246 OA
BRANCH   7   9
ATOM      9  O   UNL     1      29.415  27.195  29.855  1.00  0.00    -0.478 OA
ATOM     10  H   UNL     1      30.147  27.824  30.025  1.00  0.00     0.297 HD
ENDBRANCH   7   9
ENDBRANCH   1   7
BRANCH   6  11
ATOM     11  O   UNL     1      31.029  24.124  28.919  1.00  0.00    -0.422 OA
BRANCH  11  12
ATOM     12  C   UNL     1      31.111  24.763  27.693  1.00  0.00     0.336 C 
ATOM     13  O   UNL     1      30.417  24.573  26.706  1.00  0.00    -0.246 OA
BRANCH  12  14
ATOM     14  C   UNL     1      32.201  25.759  27.790  1.00  0.00     0.094 C 
ATOM     15  C   UNL     1      33.446  25.427  27.417  1.00  0.00     0.015 C 
BRANCH  15  16
ATOM     16  C   UNL     1      34.587  26.348  27.474  1.00  0.00    -0.025 A 
ATOM     17  C   UNL     1      35.908  25.915  27.292  1.00  0.00     0.008 A 
ATOM     18  C   UNL     1      34.346  27.715  27.666  1.00  0.00     0.008 A 
ATOM     19  C   UNL     1      36.966  26.828  27.328  1.00  0.00     0.001 A 
ATOM     20  C   UNL     1      35.403  28.626  27.702  1.00  0.00     0.001 A 
ATOM     21  C   UNL     1      36.714  28.183  27.536  1.00  0.00     0.000 A 
ENDBRANCH  15  16
ENDBRANCH  12  14
ENDBRANCH  11  12
ENDBRANCH   6  11
TORSDOF 6
ENDMDL
MODEL 17
REMARK VINA RESULT:    -4.776      1.813      2.755
REMARK INTER + INTRA:          -7.146
REMARK INTER:                  -6.135
REMARK INTRA:                  -1.011
REMARK UNBOUND:                -0.834
REMARK SMILES O=C(/C=C/c1ccccc1)Oc1ccccc1C(=O)O
REMARK SMILES IDX 17 1 16 2 15 3 14 4 13 5 12 6 18 7 19 8 20 9 11 11 2 12 1 13
REMARK SMILES IDX 3 14 4 15 5 16 6 17 10 18 7 19 9 20 8 21
REMARK H PARENT 20 10
ROOT
ATOM      1  C   UNL     1      34.771  26.504  26.194  1.00  0.00     0.102 A 
ATOM      2  C   UNL     1      36.022  26.066  26.654  1.00  0.00     0.019 A 
ATOM      3  C   UNL     1      36.599  24.899  26.141  1.00  0.00     0.001 A 
ATOM      4  C   UNL     1      35.932  24.155  25.170  1.00  0.00     0.004 A 
ATOM      5  C   UNL     1      34.690  24.576  24.701  1.00  0.00     0.048 A 
ATOM      6  C   UNL     1      34.124  25.753  25.203  1.00  0.00     0.145 A 
ENDROOT
BRANCH   1   7
ATOM      7  C   UNL     1      34.137  27.725  26.757  1.00  0.00     0.339 C 
ATOM      8  O   UNL     1      33.946  27.978  27.932  1.00  0.00    -0.246 OA
BRANCH   7   9
ATOM      9  O   UNL     1      33.763  28.599  25.802  1.00  0.00    -0.478 OA
ATOM     10  H   UNL     1      33.920  28.112  24.966  1.00  0.00     0.297 HD
ENDBRANCH   7   9
ENDBRANCH   1   7
BRANCH   6  11
ATOM     11  O   UNL     1      32.864  26.109  24.712  1.00  0.00    -0.422 OA
BRANCH  11  12
ATOM     12  C   UNL     1      31.882  25.206  25.085  1.00  0.00     0.336 C 
ATOM     13  O   UNL     1      31.469  24.249  24.448  1.00  0.00    -0.246 OA
BRANCH  12  14
ATOM     14  C   UNL     1      31.417  25.596  26.435  1.00  0.00     0.094 C 
ATOM     15  C   UNL     1      31.451  24.705  27.437  1.00  0.00     0.015 C 
BRANCH  15  16
ATOM     16  C   UNL     1      31.015  25.001  28.807  1.00  0.00    -0.025 A 
ATOM     17  C   UNL     1      31.207  26.257  29.398  1.00  0.00     0.008 A 
ATOM     18  C   UNL     1      30.337  24.011  29.530  1.00  0.00     0.008 A 
ATOM     19  C   UNL     1      30.753  26.508  30.697  1.00  0.00     0.001 A 
ATOM     20  C   UNL     1      29.884  24.261  30.828  1.00  0.00     0.001 A 
ATOM     21  C   UNL     1      30.095  25.509  31.412  1.00  0.00     0.000 A 
ENDBRANCH  15  16
ENDBRANCH  12  14
ENDBRANCH  11  12
ENDBRANCH   6  11
TORSDOF 6
ENDMDL
MODEL 18
REMARK VINA RESULT:    -4.718      4.490      8.386
REMARK INTER + INTRA:          -7.070
REMARK INTER:                  -6.225
REMARK INTRA:                  -0.845
REMARK UNBOUND:                -0.834
REMARK SMILES O=C(/C=C/c1ccccc1)Oc1ccccc1C(=O)O
REMARK SMILES IDX 17 1 16 2 15 3 14 4 13 5 12 6 18 7 19 8 20 9 11 11 2 12 1 13
REMARK SMILES IDX 3 14 4 15 5 16 6 17 10 18 7 19 9 20 8 21
REMARK H PARENT 20 10
ROOT
ATOM      1  C   UNL     1      38.309  25.204  24.944  1.00  0.00     0.102 A 
ATOM      2  C   UNL     1      37.462  24.236  24.385  1.00  0.00     0.019 A 
ATOM      3  C   UNL     1      36.256  23.900  25.011  1.00  0.00     0.001 A 
ATOM      4  C   UNL     1      35.887  24.523  26.202  1.00  0.00     0.004 A 
ATOM      5  C   UNL     1      36.716  25.487  26.770  1.00  0.00     0.048 A 
ATOM      6  C   UNL     1      37.912  25.834  26.131  1.00  0.00     0.145 A 
ENDROOT
BRANCH   1   7
ATOM      7  C   UNL     1      39.606  25.544  24.302  1.00  0.00     0.339 C 
ATOM      8  O   UNL     1      40.411  24.769  23.818  1.00  0.00    -0.246 OA
BRANCH   7   9
ATOM      9  O   UNL     1      39.845  26.870  24.289  1.00  0.00    -0.478 OA
ATOM     10  H   UNL     1      39.496  27.161  23.421  1.00  0.00     0.297 HD
ENDBRANCH   7   9
ENDBRANCH   1   7
BRANCH   6  11
ATOM     11  O   UNL     1      38.713  26.789  26.764  1.00  0.00    -0.422 OA
BRANCH  11  12
ATOM     12  C   UNL     1      39.030  26.431  28.064  1.00  0.00     0.336 C 
ATOM     13  O   UNL     1      38.473  26.785  29.091  1.00  0.00    -0.246 OA
BRANCH  12  14
ATOM     14  C   UNL     1      40.180  25.502  27.995  1.00  0.00     0.094 C 
ATOM     15  C   UNL     1      40.827  25.154  29.117  1.00  0.00     0.015 C 
BRANCH  15  16
ATOM     16  C   UNL     1      41.974  24.238  29.147  1.00  0.00    -0.025 A 
ATOM     17  C   UNL     1      41.988  23.082  29.939  1.00  0.00     0.008 A 
ATOM     18  C   UNL     1      43.071  24.500  28.316  1.00  0.00     0.008 A 
ATOM     19  C   UNL     1      43.089  22.221  29.920  1.00  0.00     0.001 A 
ATOM     20  C   UNL     1      44.172  23.640  28.297  1.00  0.00     0.001 A 
ATOM     21  C   UNL     1      44.182  22.502  29.102  1.00  0.00     0.000 A 
ENDBRANCH  15  16
ENDBRANCH  12  14
ENDBRANCH  11  12
ENDBRANCH   6  11
TORSDOF 6
ENDMDL
MODEL 19
REMARK VINA RESULT:    -4.683      2.053      3.434
REMARK INTER + INTRA:          -7.023
REMARK INTER:                  -6.268
REMARK INTRA:                  -0.755
REMARK UNBOUND:                -0.834
REMARK SMILES O=C(/C=C/c1ccccc1)Oc1ccccc1C(=O)O
REMARK SMILES IDX 17 1 16 2 15 3 14 4 13 5 12 6 18 7 19 8 20 9 11 11 2 12 1 13
REMARK SMILES IDX 3 14 4 15 5 16 6 17 10 18 7 19 9 20 8 21
REMARK H PARENT 20 10
ROOT
ATOM      1  C   UNL     1      33.591  25.579  25.239  1.00  0.00     0.102 A 
ATOM      2  C   UNL     1      34.554  25.821  24.248  1.00  0.00     0.019 A 
ATOM      3  C   UNL     1      35.916  25.845  24.571  1.00  0.00     0.001 A 
ATOM      4  C   UNL     1      36.329  25.634  25.885  1.00  0.00     0.004 A 
ATOM      5  C   UNL     1      35.386  25.392  26.881  1.00  0.00     0.048 A 
ATOM      6  C   UNL     1      34.027  25.350  26.551  1.00  0.00     0.145 A 
ENDROOT
BRANCH   1   7
ATOM      7  C   UNL     1      32.142  25.583  24.910  1.00  0.00     0.339 C 
ATOM      8  O   UNL     1      31.480  26.529  24.523  1.00  0.00    -0.246 OA
BRANCH   7   9
ATOM      9  O   UNL     1      31.570  24.375  25.080  1.00  0.00    -0.478 OA
ATOM     10  H   UNL     1      32.150  23.934  25.736  1.00  0.00     0.297 HD
ENDBRANCH   7   9
ENDBRANCH   1   7
BRANCH   6  11
ATOM     11  O   UNL     1      33.128  25.128  27.599  1.00  0.00    -0.422 OA
BRANCH  11  12
ATOM     12  C   UNL     1      32.532  26.300  28.036  1.00  0.00     0.336 C 
ATOM     13  O   UNL     1      33.004  27.426  28.022  1.00  0.00    -0.246 OA
BRANCH  12  14
ATOM     14  C   UNL     1      31.178  25.949  28.520  1.00  0.00     0.094 C 
ATOM     15  C   UNL     1      30.850  24.663  28.717  1.00  0.00     0.015 C 
BRANCH  15  16
ATOM     16  C   UNL     1      29.535  24.222  29.197  1.00  0.00    -0.025 A 
ATOM     17  C   UNL     1      28.695  25.053  29.950  1.00  0.00     0.008 A 
ATOM     18  C   UNL     1      29.082  22.942  28.848  1.00  0.00     0.008 A 
ATOM     19  C   UNL     1      27.438  24.604  30.366  1.00  0.00     0.001 A 
ATOM     20  C   UNL     1      27.827  22.494  29.265  1.00  0.00     0.001 A 
ATOM     21  C   UNL     1      27.006  23.323  30.026  1.00  0.00     0.000 A 
ENDBRANCH  15  16
ENDBRANCH  12  14
ENDBRANCH  11  12
ENDBRANCH   6  11
TORSDOF 6
ENDMDL
MODEL 20
REMARK VINA RESULT:    -4.651      4.544      7.490
REMARK INTER + INTRA:          -6.980
REMARK INTER:                  -5.937
REMARK INTRA:                  -1.044
REMARK UNBOUND:                -0.834
REMARK SMILES O=C(/C=C/c1ccccc1)Oc1ccccc1C(=O)O
REMARK SMILES IDX 17 1 16 2 15 3 14 4 13 5 12 6 18 7 19 8 20 9 11 11 2 12 1 13
REMARK SMILES IDX 3 14 4 15 5 16 6 17 10 18 7 19 9 20 8 21
REMARK H PARENT 20 10
ROOT
ATOM      1  C   UNL     1      30.317  24.971  28.403  1.00  0.00     0.102 A 
ATOM      2  C   UNL     1      29.571  23.837  28.760  1.00  0.00     0.019 A 
ATOM      3  C   UNL     1      29.322  23.545  30.106  1.00  0.00     0.001 A 
ATOM      4  C   UNL     1      29.820  24.376  31.108  1.00  0.00     0.004 A 
ATOM      5  C   UNL     1      30.562  25.505  30.771  1.00  0.00     0.048 A 
ATOM      6  C   UNL     1      30.793  25.805  29.424  1.00  0.00     0.145 A 
ENDROOT
BRANCH   1   7
ATOM      7  C   UNL     1      30.612  25.271  26.978  1.00  0.00     0.339 C 
ATOM      8  O   UNL     1      31.322  24.631  26.224  1.00  0.00    -0.246 OA
BRANCH   7   9
ATOM      9  O   UNL     1      29.989  26.385  26.545  1.00  0.00    -0.478 OA
ATOM     10  H   UNL     1      29.727  26.841  27.372  1.00  0.00     0.297 HD
ENDBRANCH   7   9
ENDBRANCH   1   7
BRANCH   6  11
ATOM     11  O   UNL     1      31.566  26.938  29.152  1.00  0.00    -0.422 OA
BRANCH  11  12
ATOM     12  C   UNL     1      30.840  28.111  29.273  1.00  0.00     0.336 C 
ATOM     13  O   UNL     1      29.669  28.296  28.978  1.00  0.00    -0.246 OA
BRANCH  12  14
ATOM     14  C   UNL     1      31.743  29.128  29.856  1.00  0.00     0.094 C 
ATOM     15  C   UNL     1      32.436  28.847  30.970  1.00  0.00     0.015 C 
BRANCH  15  16
ATOM     16  C   UNL     1      33.356  29.789  31.617  1.00  0.00    -0.025 A 
ATOM     17  C   UNL     1      34.739  29.564  31.677  1.00  0.00     0.008 A 
ATOM     18  C   UNL     1      32.844  30.981  32.148  1.00  0.00     0.008 A 
ATOM     19  C   UNL     1      35.585  30.498  32.280  1.00  0.00     0.001 A 
ATOM     20  C   UNL     1      33.690  31.914  32.750  1.00  0.00     0.001 A 
ATOM     21  C   UNL     1      35.061  31.672  32.819  1.00  0.00     0.000 A 
ENDBRANCH  15  16
ENDBRANCH  12  14
ENDBRANCH  11  12
ENDBRANCH   6  11
TORSDOF 6
ENDMDL
