MODEL 1
REMARK VINA RESULT:    -8.529      0.000      0.000
REMARK INTER + INTRA:         -10.639
REMARK INTER:                 -10.773
REMARK INTRA:                   0.135
REMARK UNBOUND:                 0.135
REMARK SMILES CC(=O)C[C@H](c1ccccc1)c1c(O)c2ccccc2oc1=O
REMARK SMILES IDX 5 1 4 2 2 3 3 4 1 5 6 6 7 7 11 8 8 9 10 10 9 11 12 12 13 13
REMARK SMILES IDX 22 14 15 15 21 16 23 17 16 18 20 19 17 20 19 21 18 22 14 23
REMARK H PARENT 14 24
ROOT
ATOM      1  C   UNL     1      29.809  11.454  33.584  1.00  0.00     0.068 C 
ENDROOT
BRANCH   1   2
ATOM      2  C   UNL     1      30.176  12.430  34.718  1.00  0.00     0.088 C 
BRANCH   2   3
ATOM      3  C   UNL     1      28.960  13.221  35.161  1.00  0.00     0.130 C 
ATOM      4  O   UNL     1      27.934  12.654  35.540  1.00  0.00    -0.300 OA
ATOM      5  C   UNL     1      29.063  14.723  35.150  1.00  0.00     0.087 C 
ENDBRANCH   2   3
ENDBRANCH   1   2
BRANCH   1   6
ATOM      6  C   UNL     1      29.902   9.982  33.991  1.00  0.00    -0.040 A 
ATOM      7  C   UNL     1      31.073   9.227  33.832  1.00  0.00     0.004 A 
ATOM      8  C   UNL     1      28.769   9.348  34.531  1.00  0.00     0.004 A 
ATOM      9  C   UNL     1      31.114   7.883  34.212  1.00  0.00     0.000 A 
ATOM     10  C   UNL     1      28.812   8.006  34.913  1.00  0.00     0.000 A 
ATOM     11  C   UNL     1      29.985   7.274  34.754  1.00  0.00     0.000 A 
ENDBRANCH   1   6
BRANCH   1  12
ATOM     12  C   UNL     1      30.530  11.716  32.261  1.00  0.00     0.088 A 
ATOM     13  C   UNL     1      31.669  12.429  32.195  1.00  0.00     0.137 A 
ATOM     14  C   UNL     1      29.933  11.173  31.013  1.00  0.00     0.343 A 
ATOM     15  C   UNL     1      32.357  12.669  30.924  1.00  0.00     0.060 A 
ATOM     16  O   UNL     1      30.514  11.546  29.808  1.00  0.00    -0.422 OA
ATOM     17  O   UNL     1      28.952  10.438  31.019  1.00  0.00    -0.246 OA
ATOM     18  C   UNL     1      33.612  13.282  30.803  1.00  0.00     0.016 A 
ATOM     19  C   UNL     1      31.731  12.241  29.758  1.00  0.00     0.142 A 
ATOM     20  C   UNL     1      34.186  13.491  29.544  1.00  0.00     0.001 A 
ATOM     21  C   UNL     1      32.288  12.444  28.496  1.00  0.00     0.048 A 
ATOM     22  C   UNL     1      33.521  13.079  28.390  1.00  0.00     0.004 A 
BRANCH  13  23
ATOM     23  O   UNL     1      32.210  13.000  33.332  1.00  0.00    -0.507 OA
ATOM     24  H   UNL     1      32.268  13.962  33.199  1.00  0.00     0.293 HD
ENDBRANCH  13  23
ENDBRANCH   1  12
TORSDOF 5
ENDMDL
MODEL 2
REMARK VINA RESULT:    -8.275      2.448      4.743
REMARK INTER + INTRA:         -10.317
REMARK INTER:                 -10.259
REMARK INTRA:                  -0.058
REMARK UNBOUND:                 0.135
REMARK SMILES CC(=O)C[C@H](c1ccccc1)c1c(O)c2ccccc2oc1=O
REMARK SMILES IDX 5 1 4 2 2 3 3 4 1 5 6 6 7 7 11 8 8 9 10 10 9 11 12 12 13 13
REMARK SMILES IDX 22 14 15 15 21 16 23 17 16 18 20 19 17 20 19 21 18 22 14 23
REMARK H PARENT 14 24
ROOT
ATOM      1  C   UNL     1      31.628  11.854  30.481  1.00  0.00     0.068 C 
ENDROOT
BRANCH   1   2
ATOM      2  C   UNL     1      30.628  12.695  29.664  1.00  0.00     0.088 C 
BRANCH   2   3
ATOM      3  C   UNL     1      31.356  13.598  28.688  1.00  0.00     0.130 C 
ATOM      4  O   UNL     1      31.306  14.824  28.796  1.00  0.00    -0.300 OA
ATOM      5  C   UNL     1      32.167  12.943  27.602  1.00  0.00     0.087 C 
ENDBRANCH   2   3
ENDBRANCH   1   2
BRANCH   1   6
ATOM      6  C   UNL     1      31.046  10.532  30.985  1.00  0.00    -0.040 A 
ATOM      7  C   UNL     1      29.668  10.270  30.996  1.00  0.00     0.004 A 
ATOM      8  C   UNL     1      31.917   9.542  31.474  1.00  0.00     0.004 A 
ATOM      9  C   UNL     1      29.177   9.050  31.471  1.00  0.00     0.000 A 
ATOM     10  C   UNL     1      31.425   8.324  31.945  1.00  0.00     0.000 A 
ATOM     11  C   UNL     1      30.055   8.078  31.942  1.00  0.00     0.000 A 
ENDBRANCH   1   6
BRANCH   1  12
ATOM     12  C   UNL     1      32.335  12.618  31.601  1.00  0.00     0.088 A 
ATOM     13  C   UNL     1      33.538  13.195  31.425  1.00  0.00     0.137 A 
ATOM     14  C   UNL     1      31.669  12.705  32.926  1.00  0.00     0.343 A 
ATOM     15  C   UNL     1      34.205  13.932  32.502  1.00  0.00     0.060 A 
ATOM     16  O   UNL     1      32.387  13.269  33.971  1.00  0.00    -0.422 OA
ATOM     17  O   UNL     1      30.534  12.283  33.120  1.00  0.00    -0.246 OA
ATOM     18  C   UNL     1      35.387  14.669  32.347  1.00  0.00     0.016 A 
ATOM     19  C   UNL     1      33.614  13.916  33.761  1.00  0.00     0.142 A 
ATOM     20  C   UNL     1      35.967  15.326  33.438  1.00  0.00     0.001 A 
ATOM     21  C   UNL     1      34.180  14.562  34.859  1.00  0.00     0.048 A 
ATOM     22  C   UNL     1      35.369  15.266  34.695  1.00  0.00     0.004 A 
BRANCH  13  23
ATOM     23  O   UNL     1      34.210  13.074  30.223  1.00  0.00    -0.507 OA
ATOM     24  H   UNL     1      33.557  12.949  29.513  1.00  0.00     0.293 HD
ENDBRANCH  13  23
ENDBRANCH   1  12
TORSDOF 5
ENDMDL
MODEL 3
REMARK VINA RESULT:    -8.138      0.682      2.085
REMARK INTER + INTRA:         -10.144
REMARK INTER:                 -10.253
REMARK INTRA:                   0.108
REMARK UNBOUND:                 0.135
REMARK SMILES CC(=O)C[C@H](c1ccccc1)c1c(O)c2ccccc2oc1=O
REMARK SMILES IDX 5 1 4 2 2 3 3 4 1 5 6 6 7 7 11 8 8 9 10 10 9 11 12 12 13 13
REMARK SMILES IDX 22 14 15 15 21 16 23 17 16 18 20 19 17 20 19 21 18 22 14 23
REMARK H PARENT 14 24
ROOT
ATOM      1  C   UNL     1      29.925  11.536  33.767  1.00  0.00     0.068 C 
ENDROOT
BRANCH   1   2
ATOM      2  C   UNL     1      30.028  12.274  35.116  1.00  0.00     0.088 C 
BRANCH   2   3
ATOM      3  C   UNL     1      28.835  13.186  35.322  1.00  0.00     0.130 C 
ATOM      4  O   UNL     1      27.720  12.730  35.580  1.00  0.00    -0.300 OA
ATOM      5  C   UNL     1      29.068  14.671  35.230  1.00  0.00     0.087 C 
ENDBRANCH   2   3
ENDBRANCH   1   2
BRANCH   1   6
ATOM      6  C   UNL     1      29.969  10.013  33.899  1.00  0.00    -0.040 A 
ATOM      7  C   UNL     1      31.172   9.297  33.984  1.00  0.00     0.004 A 
ATOM      8  C   UNL     1      28.762   9.292  33.920  1.00  0.00     0.004 A 
ATOM      9  C   UNL     1      31.169   7.904  34.099  1.00  0.00     0.000 A 
ATOM     10  C   UNL     1      28.760   7.900  34.037  1.00  0.00     0.000 A 
ATOM     11  C   UNL     1      29.964   7.207  34.127  1.00  0.00     0.000 A 
ENDBRANCH   1   6
BRANCH   1  12
ATOM     12  C   UNL     1      30.894  12.034  32.694  1.00  0.00     0.088 A 
ATOM     13  C   UNL     1      30.708  11.777  31.386  1.00  0.00     0.137 A 
ATOM     14  C   UNL     1      32.084  12.811  33.125  1.00  0.00     0.343 A 
ATOM     15  C   UNL     1      31.638  12.265  30.364  1.00  0.00     0.060 A 
ATOM     16  O   UNL     1      33.031  13.126  32.159  1.00  0.00    -0.422 OA
ATOM     17  O   UNL     1      32.258  13.158  34.288  1.00  0.00    -0.246 OA
ATOM     18  C   UNL     1      31.431  12.150  28.983  1.00  0.00     0.016 A 
ATOM     19  C   UNL     1      32.797  12.901  30.794  1.00  0.00     0.142 A 
ATOM     20  C   UNL     1      32.386  12.627  28.076  1.00  0.00     0.001 A 
ATOM     21  C   UNL     1      33.760  13.379  29.905  1.00  0.00     0.048 A 
ATOM     22  C   UNL     1      33.553  13.233  28.537  1.00  0.00     0.004 A 
BRANCH  13  23
ATOM     23  O   UNL     1      29.645  11.000  30.964  1.00  0.00    -0.507 OA
ATOM     24  H   UNL     1      28.835  11.538  30.997  1.00  0.00     0.293 HD
ENDBRANCH  13  23
ENDBRANCH   1  12
TORSDOF 5
ENDMDL
MODEL 4
REMARK VINA RESULT:    -8.117      2.061      3.502
REMARK INTER + INTRA:         -10.118
REMARK INTER:                 -10.585
REMARK INTRA:                   0.467
REMARK UNBOUND:                 0.135
REMARK SMILES CC(=O)C[C@H](c1ccccc1)c1c(O)c2ccccc2oc1=O
REMARK SMILES IDX 5 1 4 2 2 3 3 4 1 5 6 6 7 7 11 8 8 9 10 10 9 11 12 12 13 13
REMARK SMILES IDX 22 14 15 15 21 16 23 17 16 18 20 19 17 20 19 21 18 22 14 23
REMARK H PARENT 14 24
ROOT
ATOM      1  C   UNL     1      30.987  12.405  34.095  1.00  0.00     0.068 C 
ENDROOT
BRANCH   1   2
ATOM      2  C   UNL     1      30.461  12.673  35.518  1.00  0.00     0.088 C 
BRANCH   2   3
ATOM      3  C   UNL     1      29.255  13.592  35.482  1.00  0.00     0.130 C 
ATOM      4  O   UNL     1      28.138  13.166  35.183  1.00  0.00    -0.300 OA
ATOM      5  C   UNL     1      29.466  15.035  35.854  1.00  0.00     0.087 C 
ENDBRANCH   2   3
ENDBRANCH   1   2
BRANCH   1   6
ATOM      6  C   UNL     1      30.930  10.932  33.690  1.00  0.00    -0.040 A 
ATOM      7  C   UNL     1      30.472  10.512  32.432  1.00  0.00     0.004 A 
ATOM      8  C   UNL     1      31.332   9.951  34.614  1.00  0.00     0.004 A 
ATOM      9  C   UNL     1      30.429   9.154  32.104  1.00  0.00     0.000 A 
ATOM     10  C   UNL     1      31.291   8.595  34.284  1.00  0.00     0.000 A 
ATOM     11  C   UNL     1      30.841   8.197  33.028  1.00  0.00     0.000 A 
ENDBRANCH   1   6
BRANCH   1  12
ATOM     12  C   UNL     1      32.358  13.015  33.798  1.00  0.00     0.088 A 
ATOM     13  C   UNL     1      32.787  13.236  32.543  1.00  0.00     0.137 A 
ATOM     14  C   UNL     1      33.241  13.355  34.944  1.00  0.00     0.343 A 
ATOM     15  C   UNL     1      34.099  13.829  32.268  1.00  0.00     0.060 A 
ATOM     16  O   UNL     1      34.536  13.765  34.657  1.00  0.00    -0.422 OA
ATOM     17  O   UNL     1      32.871  13.266  36.110  1.00  0.00    -0.246 OA
ATOM     18  C   UNL     1      34.548  14.210  30.996  1.00  0.00     0.016 A 
ATOM     19  C   UNL     1      34.950  14.045  33.346  1.00  0.00     0.142 A 
ATOM     20  C   UNL     1      35.828  14.749  30.824  1.00  0.00     0.001 A 
ATOM     21  C   UNL     1      36.229  14.578  33.192  1.00  0.00     0.048 A 
ATOM     22  C   UNL     1      36.672  14.926  31.919  1.00  0.00     0.004 A 
BRANCH  13  23
ATOM     23  O   UNL     1      32.012  12.870  31.458  1.00  0.00    -0.507 OA
ATOM     24  H   UNL     1      32.502  12.212  30.935  1.00  0.00     0.293 HD
ENDBRANCH  13  23
ENDBRANCH   1  12
TORSDOF 5
ENDMDL
MODEL 5
REMARK VINA RESULT:    -8.017      1.935      2.500
REMARK INTER + INTRA:          -9.992
REMARK INTER:                  -9.309
REMARK INTRA:                  -0.683
REMARK UNBOUND:                 0.135
REMARK SMILES CC(=O)C[C@H](c1ccccc1)c1c(O)c2ccccc2oc1=O
REMARK SMILES IDX 5 1 4 2 2 3 3 4 1 5 6 6 7 7 11 8 8 9 10 10 9 11 12 12 13 13
REMARK SMILES IDX 22 14 15 15 21 16 23 17 16 18 20 19 17 20 19 21 18 22 14 23
REMARK H PARENT 14 24
ROOT
ATOM      1  C   UNL     1      30.269  10.307  33.455  1.00  0.00     0.068 C 
ENDROOT
BRANCH   1   2
ATOM      2  C   UNL     1      31.313  10.340  34.589  1.00  0.00     0.088 C 
BRANCH   2   3
ATOM      3  C   UNL     1      31.513  11.755  35.095  1.00  0.00     0.130 C 
ATOM      4  O   UNL     1      30.683  12.636  34.868  1.00  0.00    -0.300 OA
ATOM      5  C   UNL     1      32.746  12.036  35.911  1.00  0.00     0.087 C 
ENDBRANCH   2   3
ENDBRANCH   1   2
BRANCH   1   6
ATOM      6  C   UNL     1      29.311   9.118  33.541  1.00  0.00    -0.040 A 
ATOM      7  C   UNL     1      28.262   8.926  32.630  1.00  0.00     0.004 A 
ATOM      8  C   UNL     1      29.469   8.185  34.581  1.00  0.00     0.004 A 
ATOM      9  C   UNL     1      27.405   7.829  32.748  1.00  0.00     0.000 A 
ATOM     10  C   UNL     1      28.614   7.088  34.697  1.00  0.00     0.000 A 
ATOM     11  C   UNL     1      27.582   6.910  33.779  1.00  0.00     0.000 A 
ENDBRANCH   1   6
BRANCH   1  12
ATOM     12  C   UNL     1      30.852  10.457  32.050  1.00  0.00     0.088 A 
ATOM     13  C   UNL     1      30.807  11.621  31.376  1.00  0.00     0.137 A 
ATOM     14  C   UNL     1      31.471   9.266  31.412  1.00  0.00     0.343 A 
ATOM     15  C   UNL     1      31.376  11.757  30.032  1.00  0.00     0.060 A 
ATOM     16  O   UNL     1      31.859   9.377  30.084  1.00  0.00    -0.422 OA
ATOM     17  O   UNL     1      31.627   8.207  32.010  1.00  0.00    -0.246 OA
ATOM     18  C   UNL     1      31.484  12.968  29.335  1.00  0.00     0.016 A 
ATOM     19  C   UNL     1      31.858  10.609  29.414  1.00  0.00     0.142 A 
ATOM     20  C   UNL     1      32.022  13.002  28.043  1.00  0.00     0.001 A 
ATOM     21  C   UNL     1      32.394  10.625  28.126  1.00  0.00     0.048 A 
ATOM     22  C   UNL     1      32.469  11.830  27.435  1.00  0.00     0.004 A 
BRANCH  13  23
ATOM     23  O   UNL     1      30.179  12.727  31.919  1.00  0.00    -0.507 OA
ATOM     24  H   UNL     1      30.842  13.259  32.391  1.00  0.00     0.293 HD
ENDBRANCH  13  23
ENDBRANCH   1  12
TORSDOF 5
ENDMDL
MODEL 6
REMARK VINA RESULT:    -7.895      2.188      3.882
REMARK INTER + INTRA:          -9.837
REMARK INTER:                 -10.550
REMARK INTRA:                   0.713
REMARK UNBOUND:                 0.135
REMARK SMILES CC(=O)C[C@H](c1ccccc1)c1c(O)c2ccccc2oc1=O
REMARK SMILES IDX 5 1 4 2 2 3 3 4 1 5 6 6 7 7 11 8 8 9 10 10 9 11 12 12 13 13
REMARK SMILES IDX 22 14 15 15 21 16 23 17 16 18 20 19 17 20 19 21 18 22 14 23
REMARK H PARENT 14 24
ROOT
ATOM      1  C   UNL     1      31.102  12.010  33.184  1.00  0.00     0.068 C 
ENDROOT
BRANCH   1   2
ATOM      2  C   UNL     1      29.747  12.737  33.292  1.00  0.00     0.088 C 
BRANCH   2   3
ATOM      3  C   UNL     1      29.015  12.326  34.554  1.00  0.00     0.130 C 
ATOM      4  O   UNL     1      28.253  13.104  35.131  1.00  0.00    -0.300 OA
ATOM      5  C   UNL     1      29.229  10.924  35.060  1.00  0.00     0.087 C 
ENDBRANCH   2   3
ENDBRANCH   1   2
BRANCH   1   6
ATOM      6  C   UNL     1      32.286  12.854  33.658  1.00  0.00    -0.040 A 
ATOM      7  C   UNL     1      33.266  13.340  32.779  1.00  0.00     0.004 A 
ATOM      8  C   UNL     1      32.417  13.144  35.027  1.00  0.00     0.004 A 
ATOM      9  C   UNL     1      34.336  14.103  33.254  1.00  0.00     0.000 A 
ATOM     10  C   UNL     1      33.486  13.909  35.500  1.00  0.00     0.000 A 
ATOM     11  C   UNL     1      34.444  14.389  34.612  1.00  0.00     0.000 A 
ENDBRANCH   1   6
BRANCH   1  12
ATOM     12  C   UNL     1      31.376  11.373  31.822  1.00  0.00     0.088 A 
ATOM     13  C   UNL     1      31.595  12.110  30.718  1.00  0.00     0.137 A 
ATOM     14  C   UNL     1      31.380   9.890  31.725  1.00  0.00     0.343 A 
ATOM     15  C   UNL     1      31.864  11.491  29.417  1.00  0.00     0.060 A 
ATOM     16  O   UNL     1      31.480   9.329  30.458  1.00  0.00    -0.422 OA
ATOM     17  O   UNL     1      31.282   9.166  32.709  1.00  0.00    -0.246 OA
ATOM     18  C   UNL     1      32.234  12.195  28.263  1.00  0.00     0.016 A 
ATOM     19  C   UNL     1      31.764  10.107  29.326  1.00  0.00     0.142 A 
ATOM     20  C   UNL     1      32.451  11.522  27.055  1.00  0.00     0.001 A 
ATOM     21  C   UNL     1      31.974   9.421  28.130  1.00  0.00     0.048 A 
ATOM     22  C   UNL     1      32.313  10.137  26.986  1.00  0.00     0.004 A 
BRANCH  13  23
ATOM     23  O   UNL     1      31.531  13.490  30.767  1.00  0.00    -0.507 OA
ATOM     24  H   UNL     1      31.099  13.752  31.598  1.00  0.00     0.293 HD
ENDBRANCH  13  23
ENDBRANCH   1  12
TORSDOF 5
ENDMDL
MODEL 7
REMARK VINA RESULT:    -7.885      2.071      3.790
REMARK INTER + INTRA:          -9.825
REMARK INTER:                  -9.618
REMARK INTRA:                  -0.207
REMARK UNBOUND:                 0.135
REMARK SMILES CC(=O)C[C@H](c1ccccc1)c1c(O)c2ccccc2oc1=O
REMARK SMILES IDX 5 1 4 2 2 3 3 4 1 5 6 6 7 7 11 8 8 9 10 10 9 11 12 12 13 13
REMARK SMILES IDX 22 14 15 15 21 16 23 17 16 18 20 19 17 20 19 21 18 22 14 23
REMARK H PARENT 14 24
ROOT
ATOM      1  C   UNL     1      30.105   9.543  32.381  1.00  0.00     0.068 C 
ENDROOT
BRANCH   1   2
ATOM      2  C   UNL     1      28.674   9.033  32.120  1.00  0.00     0.088 C 
BRANCH   2   3
ATOM      3  C   UNL     1      28.683   7.552  31.791  1.00  0.00     0.130 C 
ATOM      4  O   UNL     1      28.948   7.152  30.657  1.00  0.00    -0.300 OA
ATOM      5  C   UNL     1      28.388   6.588  32.910  1.00  0.00     0.087 C 
ENDBRANCH   2   3
ENDBRANCH   1   2
BRANCH   1   6
ATOM      6  C   UNL     1      30.294  10.139  33.777  1.00  0.00    -0.040 A 
ATOM      7  C   UNL     1      31.559  10.438  34.305  1.00  0.00     0.004 A 
ATOM      8  C   UNL     1      29.164  10.383  34.577  1.00  0.00     0.004 A 
ATOM      9  C   UNL     1      31.689  10.976  35.588  1.00  0.00     0.000 A 
ATOM     10  C   UNL     1      29.295  10.924  35.858  1.00  0.00     0.000 A 
ATOM     11  C   UNL     1      30.558  11.221  36.362  1.00  0.00     0.000 A 
ENDBRANCH   1   6
BRANCH   1  12
ATOM     12  C   UNL     1      30.659  10.467  31.297  1.00  0.00     0.088 A 
ATOM     13  C   UNL     1      31.317   9.996  30.222  1.00  0.00     0.137 A 
ATOM     14  C   UNL     1      30.472  11.932  31.456  1.00  0.00     0.343 A 
ATOM     15  C   UNL     1      31.838  10.889  29.183  1.00  0.00     0.060 A 
ATOM     16  O   UNL     1      31.109  12.764  30.545  1.00  0.00    -0.422 OA
ATOM     17  O   UNL     1      29.801  12.415  32.361  1.00  0.00    -0.246 OA
ATOM     18  C   UNL     1      32.408  10.457  27.978  1.00  0.00     0.016 A 
ATOM     19  C   UNL     1      31.742  12.259  29.400  1.00  0.00     0.142 A 
ATOM     20  C   UNL     1      32.901  11.383  27.050  1.00  0.00     0.001 A 
ATOM     21  C   UNL     1      32.231  13.194  28.488  1.00  0.00     0.048 A 
ATOM     22  C   UNL     1      32.820  12.750  27.308  1.00  0.00     0.004 A 
BRANCH  13  23
ATOM     23  O   UNL     1      31.562   8.642  30.082  1.00  0.00    -0.507 OA
ATOM     24  H   UNL     1      32.491   8.469  30.312  1.00  0.00     0.293 HD
ENDBRANCH  13  23
ENDBRANCH   1  12
TORSDOF 5
ENDMDL
MODEL 8
REMARK VINA RESULT:    -7.800      1.847      3.547
REMARK INTER + INTRA:          -9.717
REMARK INTER:                  -9.668
REMARK INTRA:                  -0.049
REMARK UNBOUND:                 0.135
REMARK SMILES CC(=O)C[C@H](c1ccccc1)c1c(O)c2ccccc2oc1=O
REMARK SMILES IDX 5 1 4 2 2 3 3 4 1 5 6 6 7 7 11 8 8 9 10 10 9 11 12 12 13 13
REMARK SMILES IDX 22 14 15 15 21 16 23 17 16 18 20 19 17 20 19 21 18 22 14 23
REMARK H PARENT 14 24
ROOT
ATOM      1  C   UNL     1      30.264  10.396  33.131  1.00  0.00     0.068 C 
ENDROOT
BRANCH   1   2
ATOM      2  C   UNL     1      28.793   9.935  33.116  1.00  0.00     0.088 C 
BRANCH   2   3
ATOM      3  C   UNL     1      28.570   8.819  34.118  1.00  0.00     0.130 C 
ATOM      4  O   UNL     1      27.434   8.434  34.400  1.00  0.00    -0.300 OA
ATOM      5  C   UNL     1      29.786   8.176  34.730  1.00  0.00     0.087 C 
ENDBRANCH   2   3
ENDBRANCH   1   2
BRANCH   1   6
ATOM      6  C   UNL     1      30.505  11.641  33.986  1.00  0.00    -0.040 A 
ATOM      7  C   UNL     1      31.789  12.059  34.366  1.00  0.00     0.004 A 
ATOM      8  C   UNL     1      29.402  12.393  34.428  1.00  0.00     0.004 A 
ATOM      9  C   UNL     1      31.964  13.200  35.154  1.00  0.00     0.000 A 
ATOM     10  C   UNL     1      29.579  13.534  35.213  1.00  0.00     0.000 A 
ATOM     11  C   UNL     1      30.861  13.938  35.574  1.00  0.00     0.000 A 
ENDBRANCH   1   6
BRANCH   1  12
ATOM     12  C   UNL     1      30.902  10.533  31.749  1.00  0.00     0.088 A 
ATOM     13  C   UNL     1      30.864  11.683  31.053  1.00  0.00     0.137 A 
ATOM     14  C   UNL     1      31.567   9.342  31.158  1.00  0.00     0.343 A 
ATOM     15  C   UNL     1      31.485  11.808  29.732  1.00  0.00     0.060 A 
ATOM     16  O   UNL     1      32.008   9.438  29.845  1.00  0.00    -0.422 OA
ATOM     17  O   UNL     1      31.718   8.296  31.781  1.00  0.00    -0.246 OA
ATOM     18  C   UNL     1      31.600  13.008  29.017  1.00  0.00     0.016 A 
ATOM     19  C   UNL     1      32.013  10.658  29.154  1.00  0.00     0.142 A 
ATOM     20  C   UNL     1      32.190  13.030  27.749  1.00  0.00     0.001 A 
ATOM     21  C   UNL     1      32.601  10.662  27.889  1.00  0.00     0.048 A 
ATOM     22  C   UNL     1      32.683  11.856  27.181  1.00  0.00     0.004 A 
BRANCH  13  23
ATOM     23  O   UNL     1      30.194  12.786  31.550  1.00  0.00    -0.507 OA
ATOM     24  H   UNL     1      29.913  13.342  30.803  1.00  0.00     0.293 HD
ENDBRANCH  13  23
ENDBRANCH   1  12
TORSDOF 5
ENDMDL
MODEL 9
REMARK VINA RESULT:    -7.768      1.215      3.598
REMARK INTER + INTRA:          -9.677
REMARK INTER:                 -10.321
REMARK INTRA:                   0.644
REMARK UNBOUND:                 0.135
REMARK SMILES CC(=O)C[C@H](c1ccccc1)c1c(O)c2ccccc2oc1=O
REMARK SMILES IDX 5 1 4 2 2 3 3 4 1 5 6 6 7 7 11 8 8 9 10 10 9 11 12 12 13 13
REMARK SMILES IDX 22 14 15 15 21 16 23 17 16 18 20 19 17 20 19 21 18 22 14 23
REMARK H PARENT 14 24
ROOT
ATOM      1  C   UNL     1      30.583  11.374  33.958  1.00  0.00     0.068 C 
ENDROOT
BRANCH   1   2
ATOM      2  C   UNL     1      29.527  10.264  34.128  1.00  0.00     0.088 C 
BRANCH   2   3
ATOM      3  C   UNL     1      30.173   8.973  34.591  1.00  0.00     0.130 C 
ATOM      4  O   UNL     1      31.382   8.781  34.455  1.00  0.00    -0.300 OA
ATOM      5  C   UNL     1      29.289   7.948  35.250  1.00  0.00     0.087 C 
ENDBRANCH   2   3
ENDBRANCH   1   2
BRANCH   1   6
ATOM      6  C   UNL     1      30.232  12.669  34.691  1.00  0.00    -0.040 A 
ATOM      7  C   UNL     1      31.047  13.214  35.693  1.00  0.00     0.004 A 
ATOM      8  C   UNL     1      29.037  13.337  34.367  1.00  0.00     0.004 A 
ATOM      9  C   UNL     1      30.686  14.398  36.343  1.00  0.00     0.000 A 
ATOM     10  C   UNL     1      28.679  14.520  35.016  1.00  0.00     0.000 A 
ATOM     11  C   UNL     1      29.504  15.051  36.003  1.00  0.00     0.000 A 
ENDBRANCH   1   6
BRANCH   1  12
ATOM     12  C   UNL     1      30.996  11.642  32.510  1.00  0.00     0.088 A 
ATOM     13  C   UNL     1      32.061  12.402  32.198  1.00  0.00     0.137 A 
ATOM     14  C   UNL     1      30.174  11.052  31.422  1.00  0.00     0.343 A 
ATOM     15  C   UNL     1      32.454  12.648  30.808  1.00  0.00     0.060 A 
ATOM     16  O   UNL     1      30.470  11.427  30.118  1.00  0.00    -0.422 OA
ATOM     17  O   UNL     1      29.251  10.276  31.642  1.00  0.00    -0.246 OA
ATOM     18  C   UNL     1      33.625  13.312  30.419  1.00  0.00     0.016 A 
ATOM     19  C   UNL     1      31.616  12.173  29.805  1.00  0.00     0.142 A 
ATOM     20  C   UNL     1      33.910  13.522  29.065  1.00  0.00     0.001 A 
ATOM     21  C   UNL     1      31.883  12.376  28.451  1.00  0.00     0.048 A 
ATOM     22  C   UNL     1      33.035  13.062  28.081  1.00  0.00     0.004 A 
BRANCH  13  23
ATOM     23  O   UNL     1      32.804  13.017  33.189  1.00  0.00    -0.507 OA
ATOM     24  H   UNL     1      33.746  12.953  32.956  1.00  0.00     0.293 HD
ENDBRANCH  13  23
ENDBRANCH   1  12
TORSDOF 5
ENDMDL
MODEL 10
REMARK VINA RESULT:    -7.741      1.876      6.258
REMARK INTER + INTRA:          -9.643
REMARK INTER:                  -9.719
REMARK INTRA:                   0.076
REMARK UNBOUND:                 0.135
REMARK SMILES CC(=O)C[C@H](c1ccccc1)c1c(O)c2ccccc2oc1=O
REMARK SMILES IDX 5 1 4 2 2 3 3 4 1 5 6 6 7 7 11 8 8 9 10 10 9 11 12 12 13 13
REMARK SMILES IDX 22 14 15 15 21 16 23 17 16 18 20 19 17 20 19 21 18 22 14 23
REMARK H PARENT 14 24
ROOT
ATOM      1  C   UNL     1      31.488  12.472  32.303  1.00  0.00     0.068 C 
ENDROOT
BRANCH   1   2
ATOM      2  C   UNL     1      31.944  11.858  30.965  1.00  0.00     0.088 C 
BRANCH   2   3
ATOM      3  C   UNL     1      31.495  12.716  29.799  1.00  0.00     0.130 C 
ATOM      4  O   UNL     1      30.571  13.522  29.919  1.00  0.00    -0.300 OA
ATOM      5  C   UNL     1      32.240  12.570  28.498  1.00  0.00     0.087 C 
ENDBRANCH   2   3
ENDBRANCH   1   2
BRANCH   1   6
ATOM      6  C   UNL     1      32.627  13.103  33.105  1.00  0.00    -0.040 A 
ATOM      7  C   UNL     1      32.634  13.138  34.507  1.00  0.00     0.004 A 
ATOM      8  C   UNL     1      33.706  13.689  32.419  1.00  0.00     0.004 A 
ATOM      9  C   UNL     1      33.692  13.729  35.202  1.00  0.00     0.000 A 
ATOM     10  C   UNL     1      34.763  14.278  33.115  1.00  0.00     0.000 A 
ATOM     11  C   UNL     1      34.756  14.297  34.507  1.00  0.00     0.000 A 
ENDBRANCH   1   6
BRANCH   1  12
ATOM     12  C   UNL     1      30.637  11.545  33.171  1.00  0.00     0.088 A 
ATOM     13  C   UNL     1      30.852  10.218  33.226  1.00  0.00     0.137 A 
ATOM     14  C   UNL     1      29.528  12.140  33.961  1.00  0.00     0.343 A 
ATOM     15  C   UNL     1      30.036   9.338  34.067  1.00  0.00     0.060 A 
ATOM     16  O   UNL     1      28.672  11.270  34.624  1.00  0.00    -0.422 OA
ATOM     17  O   UNL     1      29.342  13.350  34.027  1.00  0.00    -0.246 OA
ATOM     18  C   UNL     1      30.293   7.976  34.275  1.00  0.00     0.016 A 
ATOM     19  C   UNL     1      28.942   9.897  34.719  1.00  0.00     0.142 A 
ATOM     20  C   UNL     1      29.446   7.205  35.079  1.00  0.00     0.001 A 
ATOM     21  C   UNL     1      28.086   9.142  35.520  1.00  0.00     0.048 A 
ATOM     22  C   UNL     1      28.338   7.785  35.695  1.00  0.00     0.004 A 
BRANCH  13  23
ATOM     23  O   UNL     1      31.834   9.630  32.451  1.00  0.00    -0.507 OA
ATOM     24  H   UNL     1      31.723   9.926  31.531  1.00  0.00     0.293 HD
ENDBRANCH  13  23
ENDBRANCH   1  12
TORSDOF 5
ENDMDL
MODEL 11
REMARK VINA RESULT:    -7.741      2.189      2.957
REMARK INTER + INTRA:          -9.643
REMARK INTER:                  -9.466
REMARK INTRA:                  -0.177
REMARK UNBOUND:                 0.135
REMARK SMILES CC(=O)C[C@H](c1ccccc1)c1c(O)c2ccccc2oc1=O
REMARK SMILES IDX 5 1 4 2 2 3 3 4 1 5 6 6 7 7 11 8 8 9 10 10 9 11 12 12 13 13
REMARK SMILES IDX 22 14 15 15 21 16 23 17 16 18 20 19 17 20 19 21 18 22 14 23
REMARK H PARENT 14 24
ROOT
ATOM      1  C   UNL     1      30.482   9.738  33.015  1.00  0.00     0.068 C 
ENDROOT
BRANCH   1   2
ATOM      2  C   UNL     1      31.573   9.621  34.097  1.00  0.00     0.088 C 
BRANCH   2   3
ATOM      3  C   UNL     1      31.181  10.395  35.341  1.00  0.00     0.130 C 
ATOM      4  O   UNL     1      30.223  10.047  36.033  1.00  0.00    -0.300 OA
ATOM      5  C   UNL     1      32.025  11.584  35.717  1.00  0.00     0.087 C 
ENDBRANCH   2   3
ENDBRANCH   1   2
BRANCH   1   6
ATOM      6  C   UNL     1      29.961   8.387  32.524  1.00  0.00    -0.040 A 
ATOM      7  C   UNL     1      28.801   8.262  31.745  1.00  0.00     0.004 A 
ATOM      8  C   UNL     1      30.654   7.216  32.878  1.00  0.00     0.004 A 
ATOM      9  C   UNL     1      28.355   7.007  31.322  1.00  0.00     0.000 A 
ATOM     10  C   UNL     1      30.209   5.962  32.453  1.00  0.00     0.000 A 
ATOM     11  C   UNL     1      29.060   5.859  31.674  1.00  0.00     0.000 A 
ENDBRANCH   1   6
BRANCH   1  12
ATOM     12  C   UNL     1      30.841  10.658  31.847  1.00  0.00     0.088 A 
ATOM     13  C   UNL     1      31.533  10.223  30.779  1.00  0.00     0.137 A 
ATOM     14  C   UNL     1      30.419  12.082  31.916  1.00  0.00     0.343 A 
ATOM     15  C   UNL     1      31.865  11.110  29.661  1.00  0.00     0.060 A 
ATOM     16  O   UNL     1      30.880  12.937  30.924  1.00  0.00    -0.422 OA
ATOM     17  O   UNL     1      29.706  12.514  32.815  1.00  0.00    -0.246 OA
ATOM     18  C   UNL     1      32.461  10.691  28.464  1.00  0.00     0.016 A 
ATOM     19  C   UNL     1      31.552  12.459  29.790  1.00  0.00     0.142 A 
ATOM     20  C   UNL     1      32.764  11.613  27.456  1.00  0.00     0.001 A 
ATOM     21  C   UNL     1      31.850  13.392  28.796  1.00  0.00     0.048 A 
ATOM     22  C   UNL     1      32.466  12.964  27.625  1.00  0.00     0.004 A 
BRANCH  13  23
ATOM     23  O   UNL     1      31.994   8.921  30.720  1.00  0.00    -0.507 OA
ATOM     24  H   UNL     1      32.006   8.554  31.620  1.00  0.00     0.293 HD
ENDBRANCH  13  23
ENDBRANCH   1  12
TORSDOF 5
ENDMDL
MODEL 12
REMARK VINA RESULT:    -7.711      1.919      2.760
REMARK INTER + INTRA:          -9.605
REMARK INTER:                 -10.189
REMARK INTRA:                   0.584
REMARK UNBOUND:                 0.135
REMARK SMILES CC(=O)C[C@H](c1ccccc1)c1c(O)c2ccccc2oc1=O
REMARK SMILES IDX 5 1 4 2 2 3 3 4 1 5 6 6 7 7 11 8 8 9 10 10 9 11 12 12 13 13
REMARK SMILES IDX 22 14 15 15 21 16 23 17 16 18 20 19 17 20 19 21 18 22 14 23
REMARK H PARENT 14 24
ROOT
ATOM      1  C   UNL     1      30.869  12.251  33.308  1.00  0.00     0.068 C 
ENDROOT
BRANCH   1   2
ATOM      2  C   UNL     1      30.596  12.787  34.727  1.00  0.00     0.088 C 
BRANCH   2   3
ATOM      3  C   UNL     1      29.139  13.176  34.884  1.00  0.00     0.130 C 
ATOM      4  O   UNL     1      28.709  14.235  34.425  1.00  0.00    -0.300 OA
ATOM      5  C   UNL     1      28.230  12.206  35.592  1.00  0.00     0.087 C 
ENDBRANCH   2   3
ENDBRANCH   1   2
BRANCH   1   6
ATOM      6  C   UNL     1      30.800  10.726  33.209  1.00  0.00    -0.040 A 
ATOM      7  C   UNL     1      30.127  10.067  32.169  1.00  0.00     0.004 A 
ATOM      8  C   UNL     1      31.416   9.946  34.203  1.00  0.00     0.004 A 
ATOM      9  C   UNL     1      30.082   8.672  32.118  1.00  0.00     0.000 A 
ATOM     10  C   UNL     1      31.373   8.551  34.149  1.00  0.00     0.000 A 
ATOM     11  C   UNL     1      30.706   7.915  33.106  1.00  0.00     0.000 A 
ENDBRANCH   1   6
BRANCH   1  12
ATOM     12  C   UNL     1      32.138  12.799  32.654  1.00  0.00     0.088 A 
ATOM     13  C   UNL     1      33.116  13.385  33.369  1.00  0.00     0.137 A 
ATOM     14  C   UNL     1      32.275  12.689  31.179  1.00  0.00     0.343 A 
ATOM     15  C   UNL     1      34.332  13.900  32.735  1.00  0.00     0.060 A 
ATOM     16  O   UNL     1      33.358  13.323  30.585  1.00  0.00    -0.422 OA
ATOM     17  O   UNL     1      31.464  12.082  30.486  1.00  0.00    -0.246 OA
ATOM     18  C   UNL     1      35.443  14.395  33.431  1.00  0.00     0.016 A 
ATOM     19  C   UNL     1      34.396  13.880  31.346  1.00  0.00     0.142 A 
ATOM     20  C   UNL     1      36.556  14.889  32.742  1.00  0.00     0.001 A 
ATOM     21  C   UNL     1      35.496  14.371  30.642  1.00  0.00     0.048 A 
ATOM     22  C   UNL     1      36.580  14.884  31.348  1.00  0.00     0.004 A 
BRANCH  13  23
ATOM     23  O   UNL     1      32.985  13.559  34.734  1.00  0.00    -0.507 OA
ATOM     24  H   UNL     1      32.643  14.454  34.902  1.00  0.00     0.293 HD
ENDBRANCH  13  23
ENDBRANCH   1  12
TORSDOF 5
ENDMDL
MODEL 13
REMARK VINA RESULT:    -7.649      1.604      2.080
REMARK INTER + INTRA:          -9.526
REMARK INTER:                  -9.948
REMARK INTRA:                   0.422
REMARK UNBOUND:                 0.135
REMARK SMILES CC(=O)C[C@H](c1ccccc1)c1c(O)c2ccccc2oc1=O
REMARK SMILES IDX 5 1 4 2 2 3 3 4 1 5 6 6 7 7 11 8 8 9 10 10 9 11 12 12 13 13
REMARK SMILES IDX 22 14 15 15 21 16 23 17 16 18 20 19 17 20 19 21 18 22 14 23
REMARK H PARENT 14 24
ROOT
ATOM      1  C   UNL     1      29.790  10.192  32.615  1.00  0.00     0.068 C 
ENDROOT
BRANCH   1   2
ATOM      2  C   UNL     1      29.850  11.339  33.642  1.00  0.00     0.088 C 
BRANCH   2   3
ATOM      3  C   UNL     1      29.316  10.885  34.986  1.00  0.00     0.130 C 
ATOM      4  O   UNL     1      28.113  10.685  35.160  1.00  0.00    -0.300 OA
ATOM      5  C   UNL     1      30.313  10.658  36.092  1.00  0.00     0.087 C 
ENDBRANCH   2   3
ENDBRANCH   1   2
BRANCH   1   6
ATOM      6  C   UNL     1      30.244   8.844  33.178  1.00  0.00    -0.040 A 
ATOM      7  C   UNL     1      29.340   7.850  33.580  1.00  0.00     0.004 A 
ATOM      8  C   UNL     1      31.620   8.589  33.319  1.00  0.00     0.004 A 
ATOM      9  C   UNL     1      29.797   6.634  34.095  1.00  0.00     0.000 A 
ATOM     10  C   UNL     1      32.075   7.373  33.832  1.00  0.00     0.000 A 
ATOM     11  C   UNL     1      31.163   6.396  34.219  1.00  0.00     0.000 A 
ENDBRANCH   1   6
BRANCH   1  12
ATOM     12  C   UNL     1      30.467  10.498  31.278  1.00  0.00     0.088 A 
ATOM     13  C   UNL     1      31.306  11.538  31.123  1.00  0.00     0.137 A 
ATOM     14  C   UNL     1      30.164   9.621  30.118  1.00  0.00     0.343 A 
ATOM     15  C   UNL     1      31.956  11.819  29.840  1.00  0.00     0.060 A 
ATOM     16  O   UNL     1      30.665   9.999  28.879  1.00  0.00    -0.422 OA
ATOM     17  O   UNL     1      29.484   8.606  30.219  1.00  0.00    -0.246 OA
ATOM     18  C   UNL     1      32.941  12.797  29.646  1.00  0.00     0.016 A 
ATOM     19  C   UNL     1      31.584  11.050  28.743  1.00  0.00     0.142 A 
ATOM     20  C   UNL     1      33.494  13.013  28.379  1.00  0.00     0.001 A 
ATOM     21  C   UNL     1      32.121  11.254  27.472  1.00  0.00     0.048 A 
ATOM     22  C   UNL     1      33.078  12.248  27.290  1.00  0.00     0.004 A 
BRANCH  13  23
ATOM     23  O   UNL     1      31.553  12.408  32.168  1.00  0.00    -0.507 OA
ATOM     24  H   UNL     1      31.232  13.291  31.920  1.00  0.00     0.293 HD
ENDBRANCH  13  23
ENDBRANCH   1  12
TORSDOF 5
ENDMDL
MODEL 14
REMARK VINA RESULT:    -7.610      9.911     11.954
REMARK INTER + INTRA:          -9.477
REMARK INTER:                  -8.892
REMARK INTRA:                  -0.585
REMARK UNBOUND:                 0.135
REMARK SMILES CC(=O)C[C@H](c1ccccc1)c1c(O)c2ccccc2oc1=O
REMARK SMILES IDX 5 1 4 2 2 3 3 4 1 5 6 6 7 7 11 8 8 9 10 10 9 11 12 12 13 13
REMARK SMILES IDX 22 14 15 15 21 16 23 17 16 18 20 19 17 20 19 21 18 22 14 23
REMARK H PARENT 14 24
ROOT
ATOM      1  C   UNL     1      24.649   5.267  26.769  1.00  0.00     0.068 C 
ENDROOT
BRANCH   1   2
ATOM      2  C   UNL     1      25.978   5.845  26.245  1.00  0.00     0.088 C 
BRANCH   2   3
ATOM      3  C   UNL     1      27.032   5.842  27.335  1.00  0.00     0.130 C 
ATOM      4  O   UNL     1      28.168   6.270  27.124  1.00  0.00    -0.300 OA
ATOM      5  C   UNL     1      26.632   5.327  28.692  1.00  0.00     0.087 C 
ENDBRANCH   2   3
ENDBRANCH   1   2
BRANCH   1   6
ATOM      6  C   UNL     1      24.247   3.954  26.096  1.00  0.00    -0.040 A 
ATOM      7  C   UNL     1      23.481   2.975  26.747  1.00  0.00     0.004 A 
ATOM      8  C   UNL     1      24.673   3.699  24.781  1.00  0.00     0.004 A 
ATOM      9  C   UNL     1      23.141   1.786  26.098  1.00  0.00     0.000 A 
ATOM     10  C   UNL     1      24.330   2.511  24.132  1.00  0.00     0.000 A 
ATOM     11  C   UNL     1      23.563   1.555  24.792  1.00  0.00     0.000 A 
ENDBRANCH   1   6
BRANCH   1  12
ATOM     12  C   UNL     1      23.488   6.262  26.795  1.00  0.00     0.088 A 
ATOM     13  C   UNL     1      23.188   7.039  25.739  1.00  0.00     0.137 A 
ATOM     14  C   UNL     1      22.685   6.377  28.039  1.00  0.00     0.343 A 
ATOM     15  C   UNL     1      22.069   7.985  25.769  1.00  0.00     0.060 A 
ATOM     16  O   UNL     1      21.734   7.387  28.100  1.00  0.00    -0.422 OA
ATOM     17  O   UNL     1      22.849   5.631  28.999  1.00  0.00    -0.246 OA
ATOM     18  C   UNL     1      21.620   8.720  24.664  1.00  0.00     0.016 A 
ATOM     19  C   UNL     1      21.394   8.150  26.974  1.00  0.00     0.142 A 
ATOM     20  C   UNL     1      20.555   9.619  24.790  1.00  0.00     0.001 A 
ATOM     21  C   UNL     1      20.333   9.044  27.117  1.00  0.00     0.048 A 
ATOM     22  C   UNL     1      19.917   9.788  26.018  1.00  0.00     0.004 A 
BRANCH  13  23
ATOM     23  O   UNL     1      23.960   7.000  24.592  1.00  0.00    -0.507 OA
ATOM     24  H   UNL     1      24.854   7.317  24.808  1.00  0.00     0.293 HD
ENDBRANCH  13  23
ENDBRANCH   1  12
TORSDOF 5
ENDMDL
MODEL 15
REMARK VINA RESULT:    -7.598     15.637     18.394
REMARK INTER + INTRA:          -9.462
REMARK INTER:                  -8.709
REMARK INTRA:                  -0.753
REMARK UNBOUND:                 0.135
REMARK SMILES CC(=O)C[C@H](c1ccccc1)c1c(O)c2ccccc2oc1=O
REMARK SMILES IDX 5 1 4 2 2 3 3 4 1 5 6 6 7 7 11 8 8 9 10 10 9 11 12 12 13 13
REMARK SMILES IDX 22 14 15 15 21 16 23 17 16 18 20 19 17 20 19 21 18 22 14 23
REMARK H PARENT 14 24
ROOT
ATOM      1  C   UNL     1      31.971  12.623  15.190  1.00  0.00     0.068 C 
ENDROOT
BRANCH   1   2
ATOM      2  C   UNL     1      30.917  12.932  16.272  1.00  0.00     0.088 C 
BRANCH   2   3
ATOM      3  C   UNL     1      31.462  13.916  17.289  1.00  0.00     0.130 C 
ATOM      4  O   UNL     1      30.930  14.054  18.391  1.00  0.00    -0.300 OA
ATOM      5  C   UNL     1      32.697  14.693  16.915  1.00  0.00     0.087 C 
ENDBRANCH   2   3
ENDBRANCH   1   2
BRANCH   1   6
ATOM      6  C   UNL     1      31.578  13.117  13.797  1.00  0.00    -0.040 A 
ATOM      7  C   UNL     1      32.373  12.889  12.664  1.00  0.00     0.004 A 
ATOM      8  C   UNL     1      30.386  13.845  13.639  1.00  0.00     0.004 A 
ATOM      9  C   UNL     1      31.981  13.364  11.409  1.00  0.00     0.000 A 
ATOM     10  C   UNL     1      29.994  14.317  12.384  1.00  0.00     0.000 A 
ATOM     11  C   UNL     1      30.792  14.074  11.269  1.00  0.00     0.000 A 
ENDBRANCH   1   6
BRANCH   1  12
ATOM     12  C   UNL     1      32.440  11.168  15.158  1.00  0.00     0.088 A 
ATOM     13  C   UNL     1      33.719  10.824  15.392  1.00  0.00     0.137 A 
ATOM     14  C   UNL     1      31.444  10.113  14.840  1.00  0.00     0.343 A 
ATOM     15  C   UNL     1      34.159   9.426  15.367  1.00  0.00     0.060 A 
ATOM     16  O   UNL     1      31.914   8.818  14.666  1.00  0.00    -0.422 OA
ATOM     17  O   UNL     1      30.249  10.353  14.711  1.00  0.00    -0.246 OA
ATOM     18  C   UNL     1      35.439   8.989  15.734  1.00  0.00     0.016 A 
ATOM     19  C   UNL     1      33.237   8.465  14.968  1.00  0.00     0.142 A 
ATOM     20  C   UNL     1      35.780   7.634  15.658  1.00  0.00     0.001 A 
ATOM     21  C   UNL     1      33.561   7.111  14.883  1.00  0.00     0.048 A 
ATOM     22  C   UNL     1      34.844   6.696  15.225  1.00  0.00     0.004 A 
BRANCH  13  23
ATOM     23  O   UNL     1      34.680  11.791  15.626  1.00  0.00    -0.507 OA
ATOM     24  H   UNL     1      34.273  12.667  15.510  1.00  0.00     0.293 HD
ENDBRANCH  13  23
ENDBRANCH   1  12
TORSDOF 5
ENDMDL
MODEL 16
REMARK VINA RESULT:    -7.569     13.110     16.111
REMARK INTER + INTRA:          -9.425
REMARK INTER:                  -8.762
REMARK INTRA:                  -0.663
REMARK UNBOUND:                 0.135
REMARK SMILES CC(=O)C[C@H](c1ccccc1)c1c(O)c2ccccc2oc1=O
REMARK SMILES IDX 5 1 4 2 2 3 3 4 1 5 6 6 7 7 11 8 8 9 10 10 9 11 12 12 13 13
REMARK SMILES IDX 22 14 15 15 21 16 23 17 16 18 20 19 17 20 19 21 18 22 14 23
REMARK H PARENT 14 24
ROOT
ATOM      1  C   UNL     1      28.403  16.042  17.710  1.00  0.00     0.068 C 
ENDROOT
BRANCH   1   2
ATOM      2  C   UNL     1      29.356  17.216  17.414  1.00  0.00     0.088 C 
BRANCH   2   3
ATOM      3  C   UNL     1      29.838  17.168  15.977  1.00  0.00     0.130 C 
ATOM      4  O   UNL     1      29.044  17.218  15.037  1.00  0.00    -0.300 OA
ATOM      5  C   UNL     1      31.323  17.088  15.742  1.00  0.00     0.087 C 
ENDBRANCH   2   3
ENDBRANCH   1   2
BRANCH   1   6
ATOM      6  C   UNL     1      27.845  16.053  19.134  1.00  0.00    -0.040 A 
ATOM      7  C   UNL     1      28.075  17.111  20.026  1.00  0.00     0.004 A 
ATOM      8  C   UNL     1      27.086  14.958  19.582  1.00  0.00     0.004 A 
ATOM      9  C   UNL     1      27.551  17.080  21.322  1.00  0.00     0.000 A 
ATOM     10  C   UNL     1      26.562  14.928  20.876  1.00  0.00     0.000 A 
ATOM     11  C   UNL     1      26.794  15.991  21.745  1.00  0.00     0.000 A 
ENDBRANCH   1   6
BRANCH   1  12
ATOM     12  C   UNL     1      28.953  14.666  17.335  1.00  0.00     0.088 A 
ATOM     13  C   UNL     1      28.485  13.970  16.283  1.00  0.00     0.137 A 
ATOM     14  C   UNL     1      30.028  14.082  18.178  1.00  0.00     0.343 A 
ATOM     15  C   UNL     1      29.024  12.655  15.925  1.00  0.00     0.060 A 
ATOM     16  O   UNL     1      30.412  12.773  17.916  1.00  0.00    -0.422 OA
ATOM     17  O   UNL     1      30.561  14.705  19.090  1.00  0.00    -0.246 OA
ATOM     18  C   UNL     1      28.678  11.943  14.769  1.00  0.00     0.016 A 
ATOM     19  C   UNL     1      29.956  12.083  16.783  1.00  0.00     0.142 A 
ATOM     20  C   UNL     1      29.228  10.680  14.517  1.00  0.00     0.001 A 
ATOM     21  C   UNL     1      30.511  10.824  16.550  1.00  0.00     0.048 A 
ATOM     22  C   UNL     1      30.137  10.117  15.412  1.00  0.00     0.004 A 
BRANCH  13  23
ATOM     23  O   UNL     1      27.441  14.461  15.521  1.00  0.00    -0.507 OA
ATOM     24  H   UNL     1      27.052  13.725  15.017  1.00  0.00     0.293 HD
ENDBRANCH  13  23
ENDBRANCH   1  12
TORSDOF 5
ENDMDL
MODEL 17
REMARK VINA RESULT:    -7.561     15.450     18.358
REMARK INTER + INTRA:          -9.415
REMARK INTER:                  -8.724
REMARK INTRA:                  -0.691
REMARK UNBOUND:                 0.135
REMARK SMILES CC(=O)C[C@H](c1ccccc1)c1c(O)c2ccccc2oc1=O
REMARK SMILES IDX 5 1 4 2 2 3 3 4 1 5 6 6 7 7 11 8 8 9 10 10 9 11 12 12 13 13
REMARK SMILES IDX 22 14 15 15 21 16 23 17 16 18 20 19 17 20 19 21 18 22 14 23
REMARK H PARENT 14 24
ROOT
ATOM      1  C   UNL     1      32.143  12.812  15.377  1.00  0.00     0.068 C 
ENDROOT
BRANCH   1   2
ATOM      2  C   UNL     1      30.970  12.882  16.374  1.00  0.00     0.088 C 
BRANCH   2   3
ATOM      3  C   UNL     1      31.255  13.891  17.469  1.00  0.00     0.130 C 
ATOM      4  O   UNL     1      30.691  13.823  18.561  1.00  0.00    -0.300 OA
ATOM      5  C   UNL     1      32.276  14.961  17.183  1.00  0.00     0.087 C 
ENDBRANCH   2   3
ENDBRANCH   1   2
BRANCH   1   6
ATOM      6  C   UNL     1      31.750  13.182  13.946  1.00  0.00    -0.040 A 
ATOM      7  C   UNL     1      32.618  13.014  12.857  1.00  0.00     0.004 A 
ATOM      8  C   UNL     1      30.478  13.729  13.704  1.00  0.00     0.004 A 
ATOM      9  C   UNL     1      32.222  13.371  11.565  1.00  0.00     0.000 A 
ATOM     10  C   UNL     1      30.082  14.083  12.413  1.00  0.00     0.000 A 
ATOM     11  C   UNL     1      30.954  13.903  11.343  1.00  0.00     0.000 A 
ENDBRANCH   1   6
BRANCH   1  12
ATOM     12  C   UNL     1      32.938  11.506  15.420  1.00  0.00     0.088 A 
ATOM     13  C   UNL     1      32.421  10.339  14.996  1.00  0.00     0.137 A 
ATOM     14  C   UNL     1      34.319  11.539  15.967  1.00  0.00     0.343 A 
ATOM     15  C   UNL     1      33.193   9.094  15.034  1.00  0.00     0.060 A 
ATOM     16  O   UNL     1      34.971  10.326  16.140  1.00  0.00    -0.422 OA
ATOM     17  O   UNL     1      34.878  12.585  16.281  1.00  0.00    -0.246 OA
ATOM     18  C   UNL     1      32.766   7.877  14.484  1.00  0.00     0.016 A 
ATOM     19  C   UNL     1      34.443   9.126  15.642  1.00  0.00     0.142 A 
ATOM     20  C   UNL     1      33.561   6.730  14.586  1.00  0.00     0.001 A 
ATOM     21  C   UNL     1      35.247   7.991  15.755  1.00  0.00     0.048 A 
ATOM     22  C   UNL     1      34.797   6.784  15.229  1.00  0.00     0.004 A 
BRANCH  13  23
ATOM     23  O   UNL     1      31.117  10.267  14.543  1.00  0.00    -0.507 OA
ATOM     24  H   UNL     1      30.836  11.155  14.263  1.00  0.00     0.293 HD
ENDBRANCH  13  23
ENDBRANCH   1  12
TORSDOF 5
ENDMDL
MODEL 18
REMARK VINA RESULT:    -7.529     15.836     18.413
REMARK INTER + INTRA:          -9.375
REMARK INTER:                  -8.672
REMARK INTRA:                  -0.703
REMARK UNBOUND:                 0.135
REMARK SMILES CC(=O)C[C@H](c1ccccc1)c1c(O)c2ccccc2oc1=O
REMARK SMILES IDX 5 1 4 2 2 3 3 4 1 5 6 6 7 7 11 8 8 9 10 10 9 11 12 12 13 13
REMARK SMILES IDX 22 14 15 15 21 16 23 17 16 18 20 19 17 20 19 21 18 22 14 23
REMARK H PARENT 14 24
ROOT
ATOM      1  C   UNL     1      31.468  11.114  14.261  1.00  0.00     0.068 C 
ENDROOT
BRANCH   1   2
ATOM      2  C   UNL     1      31.591  11.930  12.960  1.00  0.00     0.088 C 
BRANCH   2   3
ATOM      3  C   UNL     1      30.542  11.500  11.954  1.00  0.00     0.130 C 
ATOM      4  O   UNL     1      29.969  12.323  11.238  1.00  0.00    -0.300 OA
ATOM      5  C   UNL     1      30.249  10.027  11.838  1.00  0.00     0.087 C 
ENDBRANCH   2   3
ENDBRANCH   1   2
BRANCH   1   6
ATOM      6  C   UNL     1      30.860  11.903  15.422  1.00  0.00    -0.040 A 
ATOM      7  C   UNL     1      30.471  11.296  16.625  1.00  0.00     0.004 A 
ATOM      8  C   UNL     1      30.663  13.287  15.280  1.00  0.00     0.004 A 
ATOM      9  C   UNL     1      29.914  12.052  17.659  1.00  0.00     0.000 A 
ATOM     10  C   UNL     1      30.108  14.043  16.315  1.00  0.00     0.000 A 
ATOM     11  C   UNL     1      29.735  13.424  17.505  1.00  0.00     0.000 A 
ENDBRANCH   1   6
BRANCH   1  12
ATOM     12  C   UNL     1      32.749  10.393  14.682  1.00  0.00     0.088 A 
ATOM     13  C   UNL     1      32.790   9.063  14.884  1.00  0.00     0.137 A 
ATOM     14  C   UNL     1      33.978  11.202  14.889  1.00  0.00     0.343 A 
ATOM     15  C   UNL     1      34.024   8.380  15.280  1.00  0.00     0.060 A 
ATOM     16  O   UNL     1      35.090  10.559  15.416  1.00  0.00    -0.422 OA
ATOM     17  O   UNL     1      34.029  12.400  14.631  1.00  0.00    -0.246 OA
ATOM     18  C   UNL     1      34.167   6.989  15.373  1.00  0.00     0.016 A 
ATOM     19  C   UNL     1      35.135   9.165  15.567  1.00  0.00     0.142 A 
ATOM     20  C   UNL     1      35.379   6.421  15.781  1.00  0.00     0.001 A 
ATOM     21  C   UNL     1      36.350   8.616  15.979  1.00  0.00     0.048 A 
ATOM     22  C   UNL     1      36.468   7.235  16.093  1.00  0.00     0.004 A 
BRANCH  13  23
ATOM     23  O   UNL     1      31.646   8.296  14.762  1.00  0.00    -0.507 OA
ATOM     24  H   UNL     1      30.874   8.887  14.763  1.00  0.00     0.293 HD
ENDBRANCH  13  23
ENDBRANCH   1  12
TORSDOF 5
ENDMDL
MODEL 19
REMARK VINA RESULT:    -7.465     15.724     18.162
REMARK INTER + INTRA:          -9.295
REMARK INTER:                  -8.741
REMARK INTRA:                  -0.553
REMARK UNBOUND:                 0.135
REMARK SMILES CC(=O)C[C@H](c1ccccc1)c1c(O)c2ccccc2oc1=O
REMARK SMILES IDX 5 1 4 2 2 3 3 4 1 5 6 6 7 7 11 8 8 9 10 10 9 11 12 12 13 13
REMARK SMILES IDX 22 14 15 15 21 16 23 17 16 18 20 19 17 20 19 21 18 22 14 23
REMARK H PARENT 14 24
ROOT
ATOM      1  C   UNL     1      31.740  11.682  14.397  1.00  0.00     0.068 C 
ENDROOT
BRANCH   1   2
ATOM      2  C   UNL     1      32.389  12.555  13.305  1.00  0.00     0.088 C 
BRANCH   2   3
ATOM      3  C   UNL     1      31.392  12.873  12.208  1.00  0.00     0.130 C 
ATOM      4  O   UNL     1      31.253  12.127  11.238  1.00  0.00    -0.300 OA
ATOM      5  C   UNL     1      30.556  14.116  12.363  1.00  0.00     0.087 C 
ENDBRANCH   2   3
ENDBRANCH   1   2
BRANCH   1   6
ATOM      6  C   UNL     1      31.343  12.466  15.649  1.00  0.00    -0.040 A 
ATOM      7  C   UNL     1      31.969  13.666  16.018  1.00  0.00     0.004 A 
ATOM      8  C   UNL     1      30.326  11.963  16.479  1.00  0.00     0.004 A 
ATOM      9  C   UNL     1      31.581  14.348  17.174  1.00  0.00     0.000 A 
ATOM     10  C   UNL     1      29.937  12.647  17.632  1.00  0.00     0.000 A 
ATOM     11  C   UNL     1      30.564  13.840  17.979  1.00  0.00     0.000 A 
ENDBRANCH   1   6
BRANCH   1  12
ATOM     12  C   UNL     1      32.525  10.419  14.751  1.00  0.00     0.088 A 
ATOM     13  C   UNL     1      33.836  10.451  15.050  1.00  0.00     0.137 A 
ATOM     14  C   UNL     1      31.807   9.118  14.744  1.00  0.00     0.343 A 
ATOM     15  C   UNL     1      34.579   9.236  15.396  1.00  0.00     0.060 A 
ATOM     16  O   UNL     1      32.563   7.966  14.919  1.00  0.00    -0.422 OA
ATOM     17  O   UNL     1      30.596   9.036  14.574  1.00  0.00    -0.246 OA
ATOM     18  C   UNL     1      35.905   9.217  15.848  1.00  0.00     0.016 A 
ATOM     19  C   UNL     1      33.916   8.018  15.285  1.00  0.00     0.142 A 
ATOM     20  C   UNL     1      36.544   8.005  16.136  1.00  0.00     0.001 A 
ATOM     21  C   UNL     1      34.539   6.802  15.564  1.00  0.00     0.048 A 
ATOM     22  C   UNL     1      35.865   6.797  15.986  1.00  0.00     0.004 A 
BRANCH  13  23
ATOM     23  O   UNL     1      34.543  11.638  15.000  1.00  0.00    -0.507 OA
ATOM     24  H   UNL     1      34.414  12.039  14.123  1.00  0.00     0.293 HD
ENDBRANCH  13  23
ENDBRANCH   1  12
TORSDOF 5
ENDMDL
MODEL 20
REMARK VINA RESULT:    -7.452     15.337     18.190
REMARK INTER + INTRA:          -9.277
REMARK INTER:                  -8.564
REMARK INTRA:                  -0.713
REMARK UNBOUND:                 0.135
REMARK SMILES CC(=O)C[C@H](c1ccccc1)c1c(O)c2ccccc2oc1=O
REMARK SMILES IDX 5 1 4 2 2 3 3 4 1 5 6 6 7 7 11 8 8 9 10 10 9 11 12 12 13 13
REMARK SMILES IDX 22 14 15 15 21 16 23 17 16 18 20 19 17 20 19 21 18 22 14 23
REMARK H PARENT 14 24
ROOT
ATOM      1  C   UNL     1      31.301  12.540  15.440  1.00  0.00     0.068 C 
ENDROOT
BRANCH   1   2
ATOM      2  C   UNL     1      30.686  12.543  16.853  1.00  0.00     0.088 C 
BRANCH   2   3
ATOM      3  C   UNL     1      31.000  13.840  17.573  1.00  0.00     0.130 C 
ATOM      4  O   UNL     1      30.574  14.058  18.708  1.00  0.00    -0.300 OA
ATOM      5  C   UNL     1      31.876  14.838  16.863  1.00  0.00     0.087 C 
ENDBRANCH   2   3
ENDBRANCH   1   2
BRANCH   1   6
ATOM      6  C   UNL     1      30.258  12.572  14.322  1.00  0.00    -0.040 A 
ATOM      7  C   UNL     1      30.607  12.675  12.967  1.00  0.00     0.004 A 
ATOM      8  C   UNL     1      28.893  12.514  14.655  1.00  0.00     0.004 A 
ATOM      9  C   UNL     1      29.623  12.707  11.976  1.00  0.00     0.000 A 
ATOM     10  C   UNL     1      27.911  12.544  13.663  1.00  0.00     0.000 A 
ATOM     11  C   UNL     1      28.276  12.639  12.324  1.00  0.00     0.000 A 
ENDBRANCH   1   6
BRANCH   1  12
ATOM     12  C   UNL     1      32.345  11.448  15.203  1.00  0.00     0.088 A 
ATOM     13  C   UNL     1      32.019  10.144  15.151  1.00  0.00     0.137 A 
ATOM     14  C   UNL     1      33.765  11.854  15.043  1.00  0.00     0.343 A 
ATOM     15  C   UNL     1      33.025   9.106  14.916  1.00  0.00     0.060 A 
ATOM     16  O   UNL     1      34.718  10.847  14.980  1.00  0.00    -0.422 OA
ATOM     17  O   UNL     1      34.111  13.029  14.985  1.00  0.00    -0.246 OA
ATOM     18  C   UNL     1      32.735   7.749  14.715  1.00  0.00     0.016 A 
ATOM     19  C   UNL     1      34.359   9.495  14.870  1.00  0.00     0.142 A 
ATOM     20  C   UNL     1      33.764   6.821  14.518  1.00  0.00     0.001 A 
ATOM     21  C   UNL     1      35.397   8.583  14.678  1.00  0.00     0.048 A 
ATOM     22  C   UNL     1      35.095   7.236  14.508  1.00  0.00     0.004 A 
BRANCH  13  23
ATOM     23  O   UNL     1      30.715   9.734  15.362  1.00  0.00    -0.507 OA
ATOM     24  H   UNL     1      30.376   9.342  14.540  1.00  0.00     0.293 HD
ENDBRANCH  13  23
ENDBRANCH   1  12
TORSDOF 5
ENDMDL
