MODEL 1
REMARK VINA RESULT:    -5.832      0.000      0.000
REMARK INTER + INTRA:          -7.658
REMARK INTER:                  -6.855
REMARK INTRA:                  -0.803
REMARK UNBOUND:                -0.803
REMARK SMILES CC(=O)N[C@H](c1cccc(Br)c1)c1c([O-])c2ccccc2oc1=O
REMARK SMILES IDX 5 1 4 2 2 3 3 4 1 5 6 7 12 8 7 9 10 10 8 11 9 12 11 13 13 14
REMARK SMILES IDX 14 15 23 16 16 17 22 18 24 19 17 20 21 21 18 22 20 23 19 24
REMARK SMILES IDX 15 25
REMARK H PARENT 4 6
ROOT
ATOM      1  C   UNL     1      -0.929  33.040  50.127  1.00  0.00     0.149 C 
ENDROOT
BRANCH   1   2
ATOM      2  N   UNL     1      -1.247  31.878  50.936  1.00  0.00    -0.345 N 
ATOM      3  C   UNL     1      -0.621  30.671  50.867  1.00  0.00     0.217 C 
ATOM      4  O   UNL     1       0.295  30.399  50.095  1.00  0.00    -0.275 OA
ATOM      5  C   UNL     1      -1.187  29.655  51.820  1.00  0.00     0.114 C 
ATOM      6  H   UNL     1      -2.052  32.036  51.555  1.00  0.00     0.164 HD
ENDBRANCH   1   2
BRANCH   1   7
ATOM      7  C   UNL     1      -0.648  34.239  51.035  1.00  0.00    -0.020 A 
ATOM      8  C   UNL     1      -0.804  34.125  52.425  1.00  0.00     0.022 A 
ATOM      9  C   UNL     1      -0.244  35.476  50.501  1.00  0.00     0.006 A 
ATOM     10  C   UNL     1      -0.553  35.219  53.252  1.00  0.00     0.018 A 
ATOM     11  C   UNL     1       0.007  36.567  51.334  1.00  0.00     0.002 A 
ATOM     12  C   UNL     1      -0.146  36.440  52.714  1.00  0.00     0.016 A 
ATOM     13  Br  UNL     1      -0.764  35.051  55.125  1.00  0.00    -0.051 Br
ENDBRANCH   1   7
BRANCH   1  14
ATOM     14  C   UNL     1      -2.045  33.323  49.107  1.00  0.00     0.057 A 
ATOM     15  C   UNL     1      -3.247  33.912  49.390  1.00  0.00    -0.085 A 
ATOM     16  C   UNL     1      -1.647  32.848  47.751  1.00  0.00     0.341 A 
ATOM     17  C   UNL     1      -4.146  34.075  48.201  1.00  0.00     0.010 A 
ATOM     18  O   UNL     1      -2.516  33.072  46.701  1.00  0.00    -0.423 OA
ATOM     19  O   UNL     1      -0.586  32.265  47.535  1.00  0.00    -0.246 OA
ATOM     20  C   UNL     1      -5.426  34.655  48.308  1.00  0.00     0.011 A 
ATOM     21  C   UNL     1      -3.757  33.668  46.930  1.00  0.00     0.137 A 
ATOM     22  C   UNL     1      -6.262  34.815  47.197  1.00  0.00     0.001 A 
ATOM     23  C   UNL     1      -4.577  33.820  45.805  1.00  0.00     0.048 A 
ATOM     24  C   UNL     1      -5.836  34.396  45.940  1.00  0.00     0.004 A 
ATOM     25  O   UNL     1      -3.637  34.322  50.530  1.00  0.00    -0.872 OA
ENDBRANCH   1  14
TORSDOF 3
ENDMDL
MODEL 2
REMARK VINA RESULT:    -5.655      2.920      5.941
REMARK INTER + INTRA:          -7.450
REMARK INTER:                  -6.416
REMARK INTRA:                  -1.033
REMARK UNBOUND:                -0.803
REMARK SMILES CC(=O)N[C@H](c1cccc(Br)c1)c1c([O-])c2ccccc2oc1=O
REMARK SMILES IDX 5 1 4 2 2 3 3 4 1 5 6 7 12 8 7 9 10 10 8 11 9 12 11 13 13 14
REMARK SMILES IDX 14 15 23 16 16 17 22 18 24 19 17 20 21 21 18 22 20 23 19 24
REMARK SMILES IDX 15 25
REMARK H PARENT 4 6
ROOT
ATOM      1  C   UNL     1      -2.602  35.355  49.785  1.00  0.00     0.149 C 
ENDROOT
BRANCH   1   2
ATOM      2  N   UNL     1      -3.094  35.897  51.038  1.00  0.00    -0.345 N 
ATOM      3  C   UNL     1      -2.329  36.473  52.005  1.00  0.00     0.217 C 
ATOM      4  O   UNL     1      -1.109  36.599  51.953  1.00  0.00    -0.275 OA
ATOM      5  C   UNL     1      -3.125  36.925  53.200  1.00  0.00     0.114 C 
ATOM      6  H   UNL     1      -4.106  35.758  51.158  1.00  0.00     0.164 HD
ENDBRANCH   1   2
BRANCH   1   7
ATOM      7  C   UNL     1      -3.734  35.323  48.757  1.00  0.00    -0.020 A 
ATOM      8  C   UNL     1      -3.816  34.275  47.827  1.00  0.00     0.022 A 
ATOM      9  C   UNL     1      -4.703  36.342  48.711  1.00  0.00     0.006 A 
ATOM     10  C   UNL     1      -4.846  34.250  46.886  1.00  0.00     0.018 A 
ATOM     11  C   UNL     1      -5.732  36.310  47.769  1.00  0.00     0.002 A 
ATOM     12  C   UNL     1      -5.805  35.261  46.853  1.00  0.00     0.016 A 
ATOM     13  Br  UNL     1      -4.946  32.829  45.640  1.00  0.00    -0.051 Br
ENDBRANCH   1   7
BRANCH   1  14
ATOM     14  C   UNL     1      -1.961  33.972  49.998  1.00  0.00     0.057 A 
ATOM     15  C   UNL     1      -2.451  32.989  50.814  1.00  0.00    -0.085 A 
ATOM     16  C   UNL     1      -0.707  33.848  49.202  1.00  0.00     0.341 A 
ATOM     17  C   UNL     1      -1.628  31.734  50.825  1.00  0.00     0.010 A 
ATOM     18  O   UNL     1      -0.029  32.646  49.236  1.00  0.00    -0.423 OA
ATOM     19  O   UNL     1      -0.255  34.771  48.526  1.00  0.00    -0.246 OA
ATOM     20  C   UNL     1      -1.980  30.621  51.614  1.00  0.00     0.011 A 
ATOM     21  C   UNL     1      -0.481  31.607  50.051  1.00  0.00     0.137 A 
ATOM     22  C   UNL     1      -1.216  29.447  51.618  1.00  0.00     0.001 A 
ATOM     23  C   UNL     1       0.295  30.442  50.040  1.00  0.00     0.048 A 
ATOM     24  C   UNL     1      -0.075  29.356  50.828  1.00  0.00     0.004 A 
ATOM     25  O   UNL     1      -3.507  33.051  51.521  1.00  0.00    -0.872 OA
ENDBRANCH   1  14
TORSDOF 3
ENDMDL
MODEL 3
REMARK VINA RESULT:    -5.016      3.102      5.802
REMARK INTER + INTRA:          -6.698
REMARK INTER:                  -5.818
REMARK INTRA:                  -0.880
REMARK UNBOUND:                -0.803
REMARK SMILES CC(=O)N[C@H](c1cccc(Br)c1)c1c([O-])c2ccccc2oc1=O
REMARK SMILES IDX 5 1 4 2 2 3 3 4 1 5 6 7 12 8 7 9 10 10 8 11 9 12 11 13 13 14
REMARK SMILES IDX 14 15 23 16 16 17 22 18 24 19 17 20 21 21 18 22 20 23 19 24
REMARK SMILES IDX 15 25
REMARK H PARENT 4 6
ROOT
ATOM      1  C   UNL     1      -2.095  35.635  49.840  1.00  0.00     0.149 C 
ENDROOT
BRANCH   1   2
ATOM      2  N   UNL     1      -2.991  36.064  50.899  1.00  0.00    -0.345 N 
ATOM      3  C   UNL     1      -2.610  36.622  52.080  1.00  0.00     0.217 C 
ATOM      4  O   UNL     1      -1.447  36.825  52.417  1.00  0.00    -0.275 OA
ATOM      5  C   UNL     1      -3.768  36.945  52.984  1.00  0.00     0.114 C 
ATOM      6  H   UNL     1      -3.976  35.855  50.691  1.00  0.00     0.164 HD
ENDBRANCH   1   2
BRANCH   1   7
ATOM      7  C   UNL     1      -2.767  35.839  48.482  1.00  0.00    -0.020 A 
ATOM      8  C   UNL     1      -3.926  35.118  48.150  1.00  0.00     0.022 A 
ATOM      9  C   UNL     1      -2.237  36.734  47.536  1.00  0.00     0.006 A 
ATOM     10  C   UNL     1      -4.535  35.301  46.909  1.00  0.00     0.018 A 
ATOM     11  C   UNL     1      -2.852  36.914  46.296  1.00  0.00     0.002 A 
ATOM     12  C   UNL     1      -4.005  36.197  45.981  1.00  0.00     0.016 A 
ATOM     13  Br  UNL     1      -6.099  34.327  46.476  1.00  0.00    -0.051 Br
ENDBRANCH   1   7
BRANCH   1  14
ATOM     14  C   UNL     1      -1.640  34.181  50.060  1.00  0.00     0.057 A 
ATOM     15  C   UNL     1      -2.323  33.237  50.777  1.00  0.00    -0.085 A 
ATOM     16  C   UNL     1      -0.328  33.938  49.395  1.00  0.00     0.341 A 
ATOM     17  C   UNL     1      -1.652  31.896  50.821  1.00  0.00     0.010 A 
ATOM     18  O   UNL     1       0.203  32.664  49.449  1.00  0.00    -0.423 OA
ATOM     19  O   UNL     1       0.295  34.822  48.810  1.00  0.00    -0.246 OA
ATOM     20  C   UNL     1      -2.210  30.807  51.519  1.00  0.00     0.011 A 
ATOM     21  C   UNL     1      -0.449  31.660  50.166  1.00  0.00     0.137 A 
ATOM     22  C   UNL     1      -1.588  29.553  51.553  1.00  0.00     0.001 A 
ATOM     23  C   UNL     1       0.189  30.414  50.186  1.00  0.00     0.048 A 
ATOM     24  C   UNL     1      -0.384  29.355  50.884  1.00  0.00     0.004 A 
ATOM     25  O   UNL     1      -3.436  33.399  51.371  1.00  0.00    -0.872 OA
ENDBRANCH   1  14
TORSDOF 3
ENDMDL
MODEL 4
REMARK VINA RESULT:    -4.925      3.081      6.090
REMARK INTER + INTRA:          -6.592
REMARK INTER:                  -5.856
REMARK INTRA:                  -0.736
REMARK UNBOUND:                -0.803
REMARK SMILES CC(=O)N[C@H](c1cccc(Br)c1)c1c([O-])c2ccccc2oc1=O
REMARK SMILES IDX 5 1 4 2 2 3 3 4 1 5 6 7 12 8 7 9 10 10 8 11 9 12 11 13 13 14
REMARK SMILES IDX 14 15 23 16 16 17 22 18 24 19 17 20 21 21 18 22 20 23 19 24
REMARK SMILES IDX 15 25
REMARK H PARENT 4 6
ROOT
ATOM      1  C   UNL     1      -2.263  32.694  50.500  1.00  0.00     0.149 C 
ENDROOT
BRANCH   1   2
ATOM      2  N   UNL     1      -1.345  31.572  50.569  1.00  0.00    -0.345 N 
ATOM      3  C   UNL     1      -1.623  30.354  51.110  1.00  0.00     0.217 C 
ATOM      4  O   UNL     1      -2.692  30.045  51.630  1.00  0.00    -0.275 OA
ATOM      5  C   UNL     1      -0.462  29.400  51.050  1.00  0.00     0.114 C 
ATOM      6  H   UNL     1      -0.412  31.802  50.203  1.00  0.00     0.164 HD
ENDBRANCH   1   2
BRANCH   1   7
ATOM      7  C   UNL     1      -2.197  33.330  49.111  1.00  0.00    -0.020 A 
ATOM      8  C   UNL     1      -3.211  33.084  48.172  1.00  0.00     0.022 A 
ATOM      9  C   UNL     1      -1.122  34.157  48.741  1.00  0.00     0.006 A 
ATOM     10  C   UNL     1      -3.148  33.660  46.903  1.00  0.00     0.018 A 
ATOM     11  C   UNL     1      -1.065  34.732  47.470  1.00  0.00     0.002 A 
ATOM     12  C   UNL     1      -2.080  34.485  46.548  1.00  0.00     0.016 A 
ATOM     13  Br  UNL     1      -4.523  33.324  45.647  1.00  0.00    -0.051 Br
ENDBRANCH   1   7
BRANCH   1  14
ATOM     14  C   UNL     1      -1.981  33.705  51.625  1.00  0.00     0.057 A 
ATOM     15  C   UNL     1      -0.830  33.770  52.362  1.00  0.00    -0.085 A 
ATOM     16  C   UNL     1      -3.151  34.608  51.823  1.00  0.00     0.341 A 
ATOM     17  C   UNL     1      -0.819  34.863  53.390  1.00  0.00     0.010 A 
ATOM     18  O   UNL     1      -3.045  35.614  52.763  1.00  0.00    -0.423 OA
ATOM     19  O   UNL     1      -4.198  34.488  51.190  1.00  0.00    -0.246 OA
ATOM     20  C   UNL     1       0.282  35.072  54.243  1.00  0.00     0.011 A 
ATOM     21  C   UNL     1      -1.895  35.728  53.545  1.00  0.00     0.137 A 
ATOM     22  C   UNL     1       0.295  36.097  55.197  1.00  0.00     0.001 A 
ATOM     23  C   UNL     1      -1.902  36.760  54.491  1.00  0.00     0.048 A 
ATOM     24  C   UNL     1      -0.801  36.945  55.321  1.00  0.00     0.004 A 
ATOM     25  O   UNL     1       0.188  33.017  52.240  1.00  0.00    -0.872 OA
ENDBRANCH   1  14
TORSDOF 3
ENDMDL
MODEL 5
REMARK VINA RESULT:    -3.430      2.663      4.354
REMARK INTER + INTRA:          -4.834
REMARK INTER:                  -4.687
REMARK INTRA:                  -0.146
REMARK UNBOUND:                -0.803
REMARK SMILES CC(=O)N[C@H](c1cccc(Br)c1)c1c([O-])c2ccccc2oc1=O
REMARK SMILES IDX 5 1 4 2 2 3 3 4 1 5 6 7 12 8 7 9 10 10 8 11 9 12 11 13 13 14
REMARK SMILES IDX 14 15 23 16 16 17 22 18 24 19 17 20 21 21 18 22 20 23 19 24
REMARK SMILES IDX 15 25
REMARK H PARENT 4 6
ROOT
ATOM      1  C   UNL     1      -1.783  33.817  51.524  1.00  0.00     0.149 C 
ENDROOT
BRANCH   1   2
ATOM      2  N   UNL     1      -0.796  34.699  52.120  1.00  0.00    -0.345 N 
ATOM      3  C   UNL     1      -0.948  35.384  53.285  1.00  0.00     0.217 C 
ATOM      4  O   UNL     1      -1.955  35.359  53.988  1.00  0.00    -0.275 OA
ATOM      5  C   UNL     1       0.244  36.232  53.635  1.00  0.00     0.114 C 
ATOM      6  H   UNL     1       0.043  34.803  51.535  1.00  0.00     0.164 HD
ENDBRANCH   1   2
BRANCH   1   7
ATOM      7  C   UNL     1      -1.104  32.535  51.041  1.00  0.00    -0.020 A 
ATOM      8  C   UNL     1      -1.235  31.345  51.774  1.00  0.00     0.022 A 
ATOM      9  C   UNL     1      -0.329  32.521  49.868  1.00  0.00     0.006 A 
ATOM     10  C   UNL     1      -0.611  30.177  51.335  1.00  0.00     0.018 A 
ATOM     11  C   UNL     1       0.292  31.349  49.433  1.00  0.00     0.002 A 
ATOM     12  C   UNL     1       0.150  30.172  50.167  1.00  0.00     0.016 A 
ATOM     13  Br  UNL     1      -0.799  28.579  52.332  1.00  0.00    -0.051 Br
ENDBRANCH   1   7
BRANCH   1  14
ATOM     14  C   UNL     1      -2.556  34.533  50.403  1.00  0.00     0.057 A 
ATOM     15  C   UNL     1      -1.994  35.105  49.294  1.00  0.00    -0.085 A 
ATOM     16  C   UNL     1      -4.018  34.540  50.696  1.00  0.00     0.341 A 
ATOM     17  C   UNL     1      -2.985  35.729  48.356  1.00  0.00     0.010 A 
ATOM     18  O   UNL     1      -4.867  35.099  49.762  1.00  0.00    -0.423 OA
ATOM     19  O   UNL     1      -4.490  34.073  51.731  1.00  0.00    -0.246 OA
ATOM     20  C   UNL     1      -2.584  36.370  47.167  1.00  0.00     0.011 A 
ATOM     21  C   UNL     1      -4.351  35.698  48.612  1.00  0.00     0.137 A 
ATOM     22  C   UNL     1      -3.510  36.945  46.288  1.00  0.00     0.001 A 
ATOM     23  C   UNL     1      -5.293  36.265  47.745  1.00  0.00     0.048 A 
ATOM     24  C   UNL     1      -4.870  36.892  46.577  1.00  0.00     0.004 A 
ATOM     25  O   UNL     1      -0.755  35.137  49.007  1.00  0.00    -0.872 OA
ENDBRANCH   1  14
TORSDOF 3
ENDMDL
MODEL 6
REMARK VINA RESULT:    -3.070      2.879      6.287
REMARK INTER + INTRA:          -4.412
REMARK INTER:                  -4.441
REMARK INTRA:                   0.030
REMARK UNBOUND:                -0.803
REMARK SMILES CC(=O)N[C@H](c1cccc(Br)c1)c1c([O-])c2ccccc2oc1=O
REMARK SMILES IDX 5 1 4 2 2 3 3 4 1 5 6 7 12 8 7 9 10 10 8 11 9 12 11 13 13 14
REMARK SMILES IDX 14 15 23 16 16 17 22 18 24 19 17 20 21 21 18 22 20 23 19 24
REMARK SMILES IDX 15 25
REMARK H PARENT 4 6
ROOT
ATOM      1  C   UNL     1      -2.426  33.516  49.578  1.00  0.00     0.149 C 
ENDROOT
BRANCH   1   2
ATOM      2  N   UNL     1      -1.206  33.127  48.895  1.00  0.00    -0.345 N 
ATOM      3  C   UNL     1      -1.140  32.473  47.704  1.00  0.00     0.217 C 
ATOM      4  O   UNL     1      -2.113  32.109  47.049  1.00  0.00    -0.275 OA
ATOM      5  C   UNL     1       0.269  32.190  47.259  1.00  0.00     0.114 C 
ATOM      6  H   UNL     1      -0.361  33.353  49.437  1.00  0.00     0.164 HD
ENDBRANCH   1   2
BRANCH   1   7
ATOM      7  C   UNL     1      -3.145  34.599  48.773  1.00  0.00    -0.020 A 
ATOM      8  C   UNL     1      -4.320  34.295  48.069  1.00  0.00     0.022 A 
ATOM      9  C   UNL     1      -2.640  35.911  48.707  1.00  0.00     0.006 A 
ATOM     10  C   UNL     1      -4.972  35.282  47.330  1.00  0.00     0.018 A 
ATOM     11  C   UNL     1      -3.298  36.895  47.968  1.00  0.00     0.002 A 
ATOM     12  C   UNL     1      -4.468  36.581  47.277  1.00  0.00     0.016 A 
ATOM     13  Br  UNL     1      -6.559  34.860  46.389  1.00  0.00    -0.051 Br
ENDBRANCH   1   7
BRANCH   1  14
ATOM     14  C   UNL     1      -2.132  33.954  51.023  1.00  0.00     0.057 A 
ATOM     15  C   UNL     1      -0.890  34.023  51.593  1.00  0.00    -0.085 A 
ATOM     16  C   UNL     1      -3.399  34.279  51.739  1.00  0.00     0.341 A 
ATOM     17  C   UNL     1      -0.894  34.492  53.018  1.00  0.00     0.010 A 
ATOM     18  O   UNL     1      -3.313  34.743  53.037  1.00  0.00    -0.423 OA
ATOM     19  O   UNL     1      -4.507  34.148  51.223  1.00  0.00    -0.246 OA
ATOM     20  C   UNL     1       0.294  34.618  53.765  1.00  0.00     0.011 A 
ATOM     21  C   UNL     1      -2.073  34.834  53.671  1.00  0.00     0.137 A 
ATOM     22  C   UNL     1       0.291  35.063  55.092  1.00  0.00     0.001 A 
ATOM     23  C   UNL     1      -2.098  35.282  54.997  1.00  0.00     0.048 A 
ATOM     24  C   UNL     1      -0.909  35.397  55.711  1.00  0.00     0.004 A 
ATOM     25  O   UNL     1       0.216  33.745  51.030  1.00  0.00    -0.872 OA
ENDBRANCH   1  14
TORSDOF 3
ENDMDL
MODEL 7
REMARK VINA RESULT:    -3.053      2.829      5.879
REMARK INTER + INTRA:          -4.392
REMARK INTER:                  -5.302
REMARK INTRA:                   0.910
REMARK UNBOUND:                -0.803
REMARK SMILES CC(=O)N[C@H](c1cccc(Br)c1)c1c([O-])c2ccccc2oc1=O
REMARK SMILES IDX 5 1 4 2 2 3 3 4 1 5 6 7 12 8 7 9 10 10 8 11 9 12 11 13 13 14
REMARK SMILES IDX 14 15 23 16 16 17 22 18 24 19 17 20 21 21 18 22 20 23 19 24
REMARK SMILES IDX 15 25
REMARK H PARENT 4 6
ROOT
ATOM      1  C   UNL     1      -2.181  33.057  48.652  1.00  0.00     0.149 C 
ENDROOT
BRANCH   1   2
ATOM      2  N   UNL     1      -1.035  32.718  47.828  1.00  0.00    -0.345 N 
ATOM      3  C   UNL     1      -1.073  32.437  46.497  1.00  0.00     0.217 C 
ATOM      4  O   UNL     1      -2.092  32.418  45.813  1.00  0.00    -0.275 OA
ATOM      5  C   UNL     1       0.277  32.104  45.922  1.00  0.00     0.114 C 
ATOM      6  H   UNL     1      -0.163  32.658  48.370  1.00  0.00     0.164 HD
ENDBRANCH   1   2
BRANCH   1   7
ATOM      7  C   UNL     1      -2.935  34.232  48.028  1.00  0.00    -0.020 A 
ATOM      8  C   UNL     1      -4.302  34.118  47.730  1.00  0.00     0.022 A 
ATOM      9  C   UNL     1      -2.278  35.439  47.727  1.00  0.00     0.006 A 
ATOM     10  C   UNL     1      -4.988  35.188  47.157  1.00  0.00     0.018 A 
ATOM     11  C   UNL     1      -2.970  36.507  47.155  1.00  0.00     0.002 A 
ATOM     12  C   UNL     1      -4.329  36.383  46.869  1.00  0.00     0.016 A 
ATOM     13  Br  UNL     1      -6.831  35.022  46.764  1.00  0.00    -0.051 Br
ENDBRANCH   1   7
BRANCH   1  14
ATOM     14  C   UNL     1      -1.752  33.336  50.103  1.00  0.00     0.057 A 
ATOM     15  C   UNL     1      -2.502  33.996  51.037  1.00  0.00    -0.085 A 
ATOM     16  C   UNL     1      -0.384  32.802  50.356  1.00  0.00     0.341 A 
ATOM     17  C   UNL     1      -1.842  34.119  52.379  1.00  0.00     0.010 A 
ATOM     18  O   UNL     1       0.137  32.920  51.630  1.00  0.00    -0.423 OA
ATOM     19  O   UNL     1       0.295  32.268  49.480  1.00  0.00    -0.246 OA
ATOM     20  C   UNL     1      -2.466  34.774  53.459  1.00  0.00     0.011 A 
ATOM     21  C   UNL     1      -0.582  33.585  52.624  1.00  0.00     0.137 A 
ATOM     22  C   UNL     1      -1.853  34.882  54.713  1.00  0.00     0.001 A 
ATOM     23  C   UNL     1       0.047  33.680  53.871  1.00  0.00     0.048 A 
ATOM     24  C   UNL     1      -0.592  34.332  54.921  1.00  0.00     0.004 A 
ATOM     25  O   UNL     1      -3.666  34.480  50.867  1.00  0.00    -0.872 OA
ENDBRANCH   1  14
TORSDOF 3
ENDMDL
