MODEL 1
REMARK VINA RESULT:   -11.617      0.000      0.000
REMARK INTER + INTRA:         -13.972
REMARK INTER:                 -13.655
REMARK INTRA:                  -0.317
REMARK UNBOUND:                -0.317
REMARK SMILES CC(=O)N[C@H](c1cccc(Br)c1)c1c([O-])c2ccccc2oc1=O
REMARK SMILES IDX 5 1 4 2 2 3 3 4 1 5 6 7 12 8 7 9 10 10 8 11 9 12 11 13 13 14
REMARK SMILES IDX 14 15 23 16 16 17 22 18 24 19 17 20 21 21 18 22 20 23 19 24
REMARK SMILES IDX 15 25
REMARK H PARENT 4 6
ROOT
ATOM      1  C   UNL     1      -9.383  25.983  57.012  1.00  0.00     0.149 C 
ENDROOT
BRANCH   1   2
ATOM      2  N   UNL     1      -9.072  27.035  57.963  1.00  0.00    -0.345 N 
ATOM      3  C   UNL     1      -9.062  26.898  59.317  1.00  0.00     0.217 C 
ATOM      4  O   UNL     1      -9.330  25.863  59.921  1.00  0.00    -0.275 OA
ATOM      5  C   UNL     1      -8.720  28.173  60.039  1.00  0.00     0.114 C 
ATOM      6  H   UNL     1      -8.903  27.941  57.508  1.00  0.00     0.164 HD
ENDBRANCH   1   2
BRANCH   1   7
ATOM      7  C   UNL     1      -8.090  25.448  56.394  1.00  0.00    -0.020 A 
ATOM      8  C   UNL     1      -7.680  24.129  56.643  1.00  0.00     0.022 A 
ATOM      9  C   UNL     1      -7.281  26.264  55.582  1.00  0.00     0.006 A 
ATOM     10  C   UNL     1      -6.498  23.644  56.083  1.00  0.00     0.018 A 
ATOM     11  C   UNL     1      -6.100  25.772  55.024  1.00  0.00     0.002 A 
ATOM     12  C   UNL     1      -5.706  24.458  55.274  1.00  0.00     0.016 A 
ATOM     13  Br  UNL     1      -5.958  21.862  56.423  1.00  0.00    -0.051 Br
ENDBRANCH   1   7
BRANCH   1  14
ATOM     14  C   UNL     1     -10.382  26.477  55.952  1.00  0.00     0.057 A 
ATOM     15  C   UNL     1     -10.204  27.567  55.144  1.00  0.00    -0.085 A 
ATOM     16  C   UNL     1     -11.595  25.612  55.932  1.00  0.00     0.341 A 
ATOM     17  C   UNL     1     -11.337  27.815  54.191  1.00  0.00     0.010 A 
ATOM     18  O   UNL     1     -12.575  25.884  54.998  1.00  0.00    -0.423 OA
ATOM     19  O   UNL     1     -11.757  24.676  56.713  1.00  0.00    -0.246 OA
ATOM     20  C   UNL     1     -11.328  28.898  53.289  1.00  0.00     0.011 A 
ATOM     21  C   UNL     1     -12.449  26.983  54.147  1.00  0.00     0.137 A 
ATOM     22  C   UNL     1     -12.381  29.125  52.395  1.00  0.00     0.001 A 
ATOM     23  C   UNL     1     -13.512  27.192  53.260  1.00  0.00     0.048 A 
ATOM     24  C   UNL     1     -13.477  28.269  52.379  1.00  0.00     0.004 A 
ATOM     25  O   UNL     1      -9.195  28.342  55.131  1.00  0.00    -0.872 OA
ENDBRANCH   1  14
TORSDOF 3
ENDMDL
MODEL 2
REMARK VINA RESULT:   -11.268      3.055      6.522
REMARK INTER + INTRA:         -13.562
REMARK INTER:                 -12.577
REMARK INTRA:                  -0.985
REMARK UNBOUND:                -0.317
REMARK SMILES CC(=O)N[C@H](c1cccc(Br)c1)c1c([O-])c2ccccc2oc1=O
REMARK SMILES IDX 5 1 4 2 2 3 3 4 1 5 6 7 12 8 7 9 10 10 8 11 9 12 11 13 13 14
REMARK SMILES IDX 14 15 23 16 16 17 22 18 24 19 17 20 21 21 18 22 20 23 19 24
REMARK SMILES IDX 15 25
REMARK H PARENT 4 6
ROOT
ATOM      1  C   UNL     1      -7.812  26.004  57.623  1.00  0.00     0.149 C 
ENDROOT
BRANCH   1   2
ATOM      2  N   UNL     1      -7.779  25.900  59.071  1.00  0.00    -0.345 N 
ATOM      3  C   UNL     1      -8.125  26.887  59.942  1.00  0.00     0.217 C 
ATOM      4  O   UNL     1      -8.500  28.010  59.617  1.00  0.00    -0.275 OA
ATOM      5  C   UNL     1      -7.968  26.487  61.384  1.00  0.00     0.114 C 
ATOM      6  H   UNL     1      -7.409  24.997  59.394  1.00  0.00     0.164 HD
ENDBRANCH   1   2
BRANCH   1   7
ATOM      7  C   UNL     1      -9.256  25.901  57.132  1.00  0.00    -0.020 A 
ATOM      8  C   UNL     1     -10.183  25.102  57.820  1.00  0.00     0.022 A 
ATOM      9  C   UNL     1      -9.682  26.588  55.981  1.00  0.00     0.006 A 
ATOM     10  C   UNL     1     -11.499  25.006  57.368  1.00  0.00     0.018 A 
ATOM     11  C   UNL     1     -11.001  26.489  55.534  1.00  0.00     0.002 A 
ATOM     12  C   UNL     1     -11.913  25.696  56.229  1.00  0.00     0.016 A 
ATOM     13  Br  UNL     1     -12.739  23.928  58.307  1.00  0.00    -0.051 Br
ENDBRANCH   1   7
BRANCH   1  14
ATOM     14  C   UNL     1      -6.893  24.952  56.976  1.00  0.00     0.057 A 
ATOM     15  C   UNL     1      -6.757  23.656  57.392  1.00  0.00    -0.085 A 
ATOM     16  C   UNL     1      -6.145  25.545  55.831  1.00  0.00     0.341 A 
ATOM     17  C   UNL     1      -5.798  22.846  56.570  1.00  0.00     0.010 A 
ATOM     18  O   UNL     1      -5.312  24.721  55.100  1.00  0.00    -0.423 OA
ATOM     19  O   UNL     1      -6.240  26.730  55.517  1.00  0.00    -0.246 OA
ATOM     20  C   UNL     1      -5.528  21.493  56.858  1.00  0.00     0.011 A 
ATOM     21  C   UNL     1      -5.132  23.390  55.478  1.00  0.00     0.137 A 
ATOM     22  C   UNL     1      -4.639  20.735  56.087  1.00  0.00     0.001 A 
ATOM     23  C   UNL     1      -4.241  22.649  54.693  1.00  0.00     0.048 A 
ATOM     24  C   UNL     1      -3.993  21.314  54.999  1.00  0.00     0.004 A 
ATOM     25  O   UNL     1      -7.361  23.108  58.368  1.00  0.00    -0.872 OA
ENDBRANCH   1  14
TORSDOF 3
ENDMDL
MODEL 3
REMARK VINA RESULT:   -11.229      3.097      6.589
REMARK INTER + INTRA:         -13.515
REMARK INTER:                 -12.473
REMARK INTRA:                  -1.042
REMARK UNBOUND:                -0.317
REMARK SMILES CC(=O)N[C@H](c1cccc(Br)c1)c1c([O-])c2ccccc2oc1=O
REMARK SMILES IDX 5 1 4 2 2 3 3 4 1 5 6 7 12 8 7 9 10 10 8 11 9 12 11 13 13 14
REMARK SMILES IDX 14 15 23 16 16 17 22 18 24 19 17 20 21 21 18 22 20 23 19 24
REMARK SMILES IDX 15 25
REMARK H PARENT 4 6
ROOT
ATOM      1  C   UNL     1      -8.006  26.009  57.630  1.00  0.00     0.149 C 
ENDROOT
BRANCH   1   2
ATOM      2  N   UNL     1      -7.997  25.881  59.076  1.00  0.00    -0.345 N 
ATOM      3  C   UNL     1      -8.306  26.869  59.960  1.00  0.00     0.217 C 
ATOM      4  O   UNL     1      -8.622  28.014  59.649  1.00  0.00    -0.275 OA
ATOM      5  C   UNL     1      -8.189  26.438  61.396  1.00  0.00     0.114 C 
ATOM      6  H   UNL     1      -7.676  24.955  59.388  1.00  0.00     0.164 HD
ENDBRANCH   1   2
BRANCH   1   7
ATOM      7  C   UNL     1      -9.440  25.894  57.111  1.00  0.00    -0.020 A 
ATOM      8  C   UNL     1      -9.854  26.651  56.004  1.00  0.00     0.022 A 
ATOM      9  C   UNL     1     -10.372  25.046  57.734  1.00  0.00     0.006 A 
ATOM     10  C   UNL     1     -11.163  26.549  55.533  1.00  0.00     0.018 A 
ATOM     11  C   UNL     1     -11.681  24.947  57.258  1.00  0.00     0.002 A 
ATOM     12  C   UNL     1     -12.079  25.700  56.154  1.00  0.00     0.016 A 
ATOM     13  Br  UNL     1     -11.707  27.572  54.037  1.00  0.00    -0.051 Br
ENDBRANCH   1   7
BRANCH   1  14
ATOM     14  C   UNL     1      -7.060  24.983  56.981  1.00  0.00     0.057 A 
ATOM     15  C   UNL     1      -6.897  23.688  57.389  1.00  0.00    -0.085 A 
ATOM     16  C   UNL     1      -6.320  25.600  55.844  1.00  0.00     0.341 A 
ATOM     17  C   UNL     1      -5.914  22.905  56.568  1.00  0.00     0.010 A 
ATOM     18  O   UNL     1      -5.464  24.801  55.113  1.00  0.00    -0.423 OA
ATOM     19  O   UNL     1      -6.440  26.785  55.537  1.00  0.00    -0.246 OA
ATOM     20  C   UNL     1      -5.616  21.557  56.849  1.00  0.00     0.011 A 
ATOM     21  C   UNL     1      -5.256  23.471  55.483  1.00  0.00     0.137 A 
ATOM     22  C   UNL     1      -4.705  20.825  56.078  1.00  0.00     0.001 A 
ATOM     23  C   UNL     1      -4.343  22.756  54.698  1.00  0.00     0.048 A 
ATOM     24  C   UNL     1      -4.067  21.426  54.998  1.00  0.00     0.004 A 
ATOM     25  O   UNL     1      -7.493  23.120  58.359  1.00  0.00    -0.872 OA
ENDBRANCH   1  14
TORSDOF 3
ENDMDL
MODEL 4
REMARK VINA RESULT:   -10.850      0.278      0.278
REMARK INTER + INTRA:         -13.070
REMARK INTER:                 -13.068
REMARK INTRA:                  -0.002
REMARK UNBOUND:                -0.317
REMARK SMILES CC(=O)N[C@H](c1cccc(Br)c1)c1c([O-])c2ccccc2oc1=O
REMARK SMILES IDX 5 1 4 2 2 3 3 4 1 5 6 7 12 8 7 9 10 10 8 11 9 12 11 13 13 14
REMARK SMILES IDX 14 15 23 16 16 17 22 18 24 19 17 20 21 21 18 22 20 23 19 24
REMARK SMILES IDX 15 25
REMARK H PARENT 4 6
ROOT
ATOM      1  C   UNL     1      -9.392  25.921  57.214  1.00  0.00     0.149 C 
ENDROOT
BRANCH   1   2
ATOM      2  N   UNL     1      -9.180  26.923  58.243  1.00  0.00    -0.345 N 
ATOM      3  C   UNL     1      -9.084  26.677  59.578  1.00  0.00     0.217 C 
ATOM      4  O   UNL     1      -9.179  25.568  60.096  1.00  0.00    -0.275 OA
ATOM      5  C   UNL     1      -8.882  27.922  60.398  1.00  0.00     0.114 C 
ATOM      6  H   UNL     1      -9.158  27.879  57.865  1.00  0.00     0.164 HD
ENDBRANCH   1   2
BRANCH   1   7
ATOM      7  C   UNL     1      -8.045  25.476  56.643  1.00  0.00    -0.020 A 
ATOM      8  C   UNL     1      -7.624  24.144  56.780  1.00  0.00     0.022 A 
ATOM      9  C   UNL     1      -7.199  26.387  55.985  1.00  0.00     0.006 A 
ATOM     10  C   UNL     1      -6.393  23.740  56.262  1.00  0.00     0.018 A 
ATOM     11  C   UNL     1      -5.969  25.976  55.468  1.00  0.00     0.002 A 
ATOM     12  C   UNL     1      -5.564  24.649  55.606  1.00  0.00     0.016 A 
ATOM     13  Br  UNL     1      -5.839  21.941  56.450  1.00  0.00    -0.051 Br
ENDBRANCH   1   7
BRANCH   1  14
ATOM     14  C   UNL     1     -10.350  26.442  56.128  1.00  0.00     0.057 A 
ATOM     15  C   UNL     1     -10.108  27.507  55.304  1.00  0.00    -0.085 A 
ATOM     16  C   UNL     1     -11.603  25.635  56.105  1.00  0.00     0.341 A 
ATOM     17  C   UNL     1     -11.213  27.790  54.328  1.00  0.00     0.010 A 
ATOM     18  O   UNL     1     -12.554  25.936  55.149  1.00  0.00    -0.423 OA
ATOM     19  O   UNL     1     -11.821  24.723  56.900  1.00  0.00    -0.246 OA
ATOM     20  C   UNL     1     -11.138  28.854  53.407  1.00  0.00     0.011 A 
ATOM     21  C   UNL     1     -12.362  27.011  54.281  1.00  0.00     0.137 A 
ATOM     22  C   UNL     1     -12.164  29.114  52.491  1.00  0.00     0.001 A 
ATOM     23  C   UNL     1     -13.400  27.253  53.373  1.00  0.00     0.048 A 
ATOM     24  C   UNL     1     -13.300  28.310  52.473  1.00  0.00     0.004 A 
ATOM     25  O   UNL     1      -9.063  28.232  55.293  1.00  0.00    -0.872 OA
ENDBRANCH   1  14
TORSDOF 3
ENDMDL
MODEL 5
REMARK VINA RESULT:   -10.688      1.181      2.260
REMARK INTER + INTRA:         -12.880
REMARK INTER:                 -12.654
REMARK INTRA:                  -0.226
REMARK UNBOUND:                -0.317
REMARK SMILES CC(=O)N[C@H](c1cccc(Br)c1)c1c([O-])c2ccccc2oc1=O
REMARK SMILES IDX 5 1 4 2 2 3 3 4 1 5 6 7 12 8 7 9 10 10 8 11 9 12 11 13 13 14
REMARK SMILES IDX 14 15 23 16 16 17 22 18 24 19 17 20 21 21 18 22 20 23 19 24
REMARK SMILES IDX 15 25
REMARK H PARENT 4 6
ROOT
ATOM      1  C   UNL     1      -9.500  25.660  57.463  1.00  0.00     0.149 C 
ENDROOT
BRANCH   1   2
ATOM      2  N   UNL     1      -9.038  26.581  58.484  1.00  0.00    -0.345 N 
ATOM      3  C   UNL     1      -9.124  26.381  59.828  1.00  0.00     0.217 C 
ATOM      4  O   UNL     1      -9.622  25.393  60.359  1.00  0.00    -0.275 OA
ATOM      5  C   UNL     1      -8.575  27.526  60.634  1.00  0.00     0.114 C 
ATOM      6  H   UNL     1      -8.670  27.456  58.089  1.00  0.00     0.164 HD
ENDBRANCH   1   2
BRANCH   1   7
ATOM      7  C   UNL     1      -8.341  24.772  57.006  1.00  0.00    -0.020 A 
ATOM      8  C   UNL     1      -7.325  24.417  57.907  1.00  0.00     0.022 A 
ATOM      9  C   UNL     1      -8.260  24.307  55.681  1.00  0.00     0.006 A 
ATOM     10  C   UNL     1      -6.266  23.611  57.489  1.00  0.00     0.018 A 
ATOM     11  C   UNL     1      -7.199  23.500  55.269  1.00  0.00     0.002 A 
ATOM     12  C   UNL     1      -6.198  23.150  56.175  1.00  0.00     0.016 A 
ATOM     13  Br  UNL     1      -4.905  23.136  58.715  1.00  0.00    -0.051 Br
ENDBRANCH   1   7
BRANCH   1  14
ATOM     14  C   UNL     1     -10.157  26.417  56.295  1.00  0.00     0.057 A 
ATOM     15  C   UNL     1     -11.359  26.101  55.723  1.00  0.00    -0.085 A 
ATOM     16  C   UNL     1      -9.291  27.545  55.850  1.00  0.00     0.341 A 
ATOM     17  C   UNL     1     -11.765  27.016  54.605  1.00  0.00     0.010 A 
ATOM     18  O   UNL     1      -9.756  28.365  54.840  1.00  0.00    -0.423 OA
ATOM     19  O   UNL     1      -8.186  27.769  56.340  1.00  0.00    -0.246 OA
ATOM     20  C   UNL     1     -12.970  26.836  53.896  1.00  0.00     0.011 A 
ATOM     21  C   UNL     1     -10.975  28.091  54.218  1.00  0.00     0.137 A 
ATOM     22  C   UNL     1     -13.353  27.694  52.859  1.00  0.00     0.001 A 
ATOM     23  C   UNL     1     -11.340  28.962  53.185  1.00  0.00     0.048 A 
ATOM     24  C   UNL     1     -12.536  28.762  52.502  1.00  0.00     0.004 A 
ATOM     25  O   UNL     1     -12.127  25.143  56.058  1.00  0.00    -0.872 OA
ENDBRANCH   1  14
TORSDOF 3
ENDMDL
MODEL 6
REMARK VINA RESULT:   -10.631      1.180      1.632
REMARK INTER + INTRA:         -12.813
REMARK INTER:                 -12.246
REMARK INTRA:                  -0.567
REMARK UNBOUND:                -0.317
REMARK SMILES CC(=O)N[C@H](c1cccc(Br)c1)c1c([O-])c2ccccc2oc1=O
REMARK SMILES IDX 5 1 4 2 2 3 3 4 1 5 6 7 12 8 7 9 10 10 8 11 9 12 11 13 13 14
REMARK SMILES IDX 14 15 23 16 16 17 22 18 24 19 17 20 21 21 18 22 20 23 19 24
REMARK SMILES IDX 15 25
REMARK H PARENT 4 6
ROOT
ATOM      1  C   UNL     1      -9.604  25.436  57.888  1.00  0.00     0.149 C 
ENDROOT
BRANCH   1   2
ATOM      2  N   UNL     1      -9.140  26.519  58.736  1.00  0.00    -0.345 N 
ATOM      3  C   UNL     1      -8.889  26.427  60.070  1.00  0.00     0.217 C 
ATOM      4  O   UNL     1      -9.036  25.410  60.743  1.00  0.00    -0.275 OA
ATOM      5  C   UNL     1      -8.437  27.725  60.679  1.00  0.00     0.114 C 
ATOM      6  H   UNL     1      -9.062  27.410  58.230  1.00  0.00     0.164 HD
ENDBRANCH   1   2
BRANCH   1   7
ATOM      7  C   UNL     1      -8.411  24.601  57.419  1.00  0.00    -0.020 A 
ATOM      8  C   UNL     1      -7.764  24.907  56.211  1.00  0.00     0.022 A 
ATOM      9  C   UNL     1      -7.948  23.508  58.173  1.00  0.00     0.006 A 
ATOM     10  C   UNL     1      -6.680  24.142  55.782  1.00  0.00     0.018 A 
ATOM     11  C   UNL     1      -6.861  22.747  57.739  1.00  0.00     0.002 A 
ATOM     12  C   UNL     1      -6.224  23.065  56.540  1.00  0.00     0.016 A 
ATOM     13  Br  UNL     1      -5.814  24.569  54.154  1.00  0.00    -0.051 Br
ENDBRANCH   1   7
BRANCH   1  14
ATOM     14  C   UNL     1     -10.442  25.975  56.716  1.00  0.00     0.057 A 
ATOM     15  C   UNL     1     -10.112  27.047  55.933  1.00  0.00    -0.085 A 
ATOM     16  C   UNL     1     -11.690  25.176  56.555  1.00  0.00     0.341 A 
ATOM     17  C   UNL     1     -11.110  27.348  54.853  1.00  0.00     0.010 A 
ATOM     18  O   UNL     1     -12.537  25.492  55.511  1.00  0.00    -0.423 OA
ATOM     19  O   UNL     1     -11.993  24.255  57.312  1.00  0.00    -0.246 OA
ATOM     20  C   UNL     1     -10.936  28.422  53.957  1.00  0.00     0.011 A 
ATOM     21  C   UNL     1     -12.253  26.577  54.679  1.00  0.00     0.137 A 
ATOM     22  C   UNL     1     -11.862  28.698  52.945  1.00  0.00     0.001 A 
ATOM     23  C   UNL     1     -13.191  26.835  53.673  1.00  0.00     0.048 A 
ATOM     24  C   UNL     1     -12.994  27.902  52.801  1.00  0.00     0.004 A 
ATOM     25  O   UNL     1      -9.069  27.767  56.039  1.00  0.00    -0.872 OA
ENDBRANCH   1  14
TORSDOF 3
ENDMDL
MODEL 7
REMARK VINA RESULT:   -10.513      3.102      6.319
REMARK INTER + INTRA:         -12.674
REMARK INTER:                 -12.440
REMARK INTRA:                  -0.234
REMARK UNBOUND:                -0.317
REMARK SMILES CC(=O)N[C@H](c1cccc(Br)c1)c1c([O-])c2ccccc2oc1=O
REMARK SMILES IDX 5 1 4 2 2 3 3 4 1 5 6 7 12 8 7 9 10 10 8 11 9 12 11 13 13 14
REMARK SMILES IDX 14 15 23 16 16 17 22 18 24 19 17 20 21 21 18 22 20 23 19 24
REMARK SMILES IDX 15 25
REMARK H PARENT 4 6
ROOT
ATOM      1  C   UNL     1      -8.359  25.829  57.861  1.00  0.00     0.149 C 
ENDROOT
BRANCH   1   2
ATOM      2  N   UNL     1      -8.462  25.764  59.307  1.00  0.00    -0.345 N 
ATOM      3  C   UNL     1      -8.268  26.806  60.161  1.00  0.00     0.217 C 
ATOM      4  O   UNL     1      -7.963  27.945  59.820  1.00  0.00    -0.275 OA
ATOM      5  C   UNL     1      -8.427  26.424  61.607  1.00  0.00     0.114 C 
ATOM      6  H   UNL     1      -8.654  24.813  59.647  1.00  0.00     0.164 HD
ENDBRANCH   1   2
BRANCH   1   7
ATOM      7  C   UNL     1      -9.757  25.780  57.241  1.00  0.00    -0.020 A 
ATOM      8  C   UNL     1     -10.051  26.540  56.099  1.00  0.00     0.022 A 
ATOM      9  C   UNL     1     -10.774  24.990  57.806  1.00  0.00     0.006 A 
ATOM     10  C   UNL     1     -11.327  26.498  55.537  1.00  0.00     0.018 A 
ATOM     11  C   UNL     1     -12.049  24.951  57.239  1.00  0.00     0.002 A 
ATOM     12  C   UNL     1     -12.328  25.707  56.101  1.00  0.00     0.016 A 
ATOM     13  Br  UNL     1     -11.710  27.525  53.994  1.00  0.00    -0.051 Br
ENDBRANCH   1   7
BRANCH   1  14
ATOM     14  C   UNL     1      -7.438  24.719  57.325  1.00  0.00     0.057 A 
ATOM     15  C   UNL     1      -6.629  24.823  56.226  1.00  0.00    -0.085 A 
ATOM     16  C   UNL     1      -7.559  23.490  58.160  1.00  0.00     0.341 A 
ATOM     17  C   UNL     1      -5.829  23.587  55.935  1.00  0.00     0.010 A 
ATOM     18  O   UNL     1      -6.758  22.409  57.848  1.00  0.00    -0.423 OA
ATOM     19  O   UNL     1      -8.341  23.402  59.105  1.00  0.00    -0.246 OA
ATOM     20  C   UNL     1      -4.947  23.512  54.838  1.00  0.00     0.011 A 
ATOM     21  C   UNL     1      -5.913  22.457  56.738  1.00  0.00     0.137 A 
ATOM     22  C   UNL     1      -4.195  22.363  54.570  1.00  0.00     0.001 A 
ATOM     23  C   UNL     1      -5.168  21.298  56.490  1.00  0.00     0.048 A 
ATOM     24  C   UNL     1      -4.305  21.251  55.399  1.00  0.00     0.004 A 
ATOM     25  O   UNL     1      -6.501  25.842  55.476  1.00  0.00    -0.872 OA
ENDBRANCH   1  14
TORSDOF 3
ENDMDL
MODEL 8
REMARK VINA RESULT:   -10.430      3.185      6.399
REMARK INTER + INTRA:         -12.577
REMARK INTER:                 -12.395
REMARK INTRA:                  -0.182
REMARK UNBOUND:                -0.317
REMARK SMILES CC(=O)N[C@H](c1cccc(Br)c1)c1c([O-])c2ccccc2oc1=O
REMARK SMILES IDX 5 1 4 2 2 3 3 4 1 5 6 7 12 8 7 9 10 10 8 11 9 12 11 13 13 14
REMARK SMILES IDX 14 15 23 16 16 17 22 18 24 19 17 20 21 21 18 22 20 23 19 24
REMARK SMILES IDX 15 25
REMARK H PARENT 4 6
ROOT
ATOM      1  C   UNL     1      -7.680  25.748  57.820  1.00  0.00     0.149 C 
ENDROOT
BRANCH   1   2
ATOM      2  N   UNL     1      -7.777  25.713  59.268  1.00  0.00    -0.345 N 
ATOM      3  C   UNL     1      -7.960  26.793  60.075  1.00  0.00     0.217 C 
ATOM      4  O   UNL     1      -8.053  27.953  59.684  1.00  0.00    -0.275 OA
ATOM      5  C   UNL     1      -8.002  26.441  61.537  1.00  0.00     0.114 C 
ATOM      6  H   UNL     1      -7.641  24.768  59.649  1.00  0.00     0.164 HD
ENDBRANCH   1   2
BRANCH   1   7
ATOM      7  C   UNL     1      -9.082  25.814  57.211  1.00  0.00    -0.020 A 
ATOM      8  C   UNL     1     -10.140  25.098  57.792  1.00  0.00     0.022 A 
ATOM      9  C   UNL     1      -9.337  26.575  56.056  1.00  0.00     0.006 A 
ATOM     10  C   UNL     1     -11.417  25.155  57.233  1.00  0.00     0.018 A 
ATOM     11  C   UNL     1     -10.617  26.629  55.502  1.00  0.00     0.002 A 
ATOM     12  C   UNL     1     -11.661  25.918  56.092  1.00  0.00     0.016 A 
ATOM     13  Br  UNL     1     -12.835  24.188  58.029  1.00  0.00    -0.051 Br
ENDBRANCH   1   7
BRANCH   1  14
ATOM     14  C   UNL     1      -6.865  24.555  57.294  1.00  0.00     0.057 A 
ATOM     15  C   UNL     1      -6.102  24.556  56.158  1.00  0.00    -0.085 A 
ATOM     16  C   UNL     1      -7.033  23.372  58.186  1.00  0.00     0.341 A 
ATOM     17  C   UNL     1      -5.404  23.255  55.886  1.00  0.00     0.010 A 
ATOM     18  O   UNL     1      -6.324  22.225  57.887  1.00  0.00    -0.423 OA
ATOM     19  O   UNL     1      -7.775  23.379  59.166  1.00  0.00    -0.246 OA
ATOM     20  C   UNL     1      -4.581  23.073  54.757  1.00  0.00     0.011 A 
ATOM     21  C   UNL     1      -5.530  22.167  56.741  1.00  0.00     0.137 A 
ATOM     22  C   UNL     1      -3.924  21.863  54.508  1.00  0.00     0.001 A 
ATOM     23  C   UNL     1      -4.880  20.948  56.512  1.00  0.00     0.048 A 
ATOM     24  C   UNL     1      -4.073  20.796  55.388  1.00  0.00     0.004 A 
ATOM     25  O   UNL     1      -5.937  25.532  55.360  1.00  0.00    -0.872 OA
ENDBRANCH   1  14
TORSDOF 3
ENDMDL
MODEL 9
REMARK VINA RESULT:   -10.389      2.997      6.480
REMARK INTER + INTRA:         -12.528
REMARK INTER:                 -11.553
REMARK INTRA:                  -0.975
REMARK UNBOUND:                -0.317
REMARK SMILES CC(=O)N[C@H](c1cccc(Br)c1)c1c([O-])c2ccccc2oc1=O
REMARK SMILES IDX 5 1 4 2 2 3 3 4 1 5 6 7 12 8 7 9 10 10 8 11 9 12 11 13 13 14
REMARK SMILES IDX 14 15 23 16 16 17 22 18 24 19 17 20 21 21 18 22 20 23 19 24
REMARK SMILES IDX 15 25
REMARK H PARENT 4 6
ROOT
ATOM      1  C   UNL     1     -10.111  25.574  57.749  1.00  0.00     0.149 C 
ENDROOT
BRANCH   1   2
ATOM      2  N   UNL     1     -11.186  24.600  57.799  1.00  0.00    -0.345 N 
ATOM      3  C   UNL     1     -11.841  24.202  58.923  1.00  0.00     0.217 C 
ATOM      4  O   UNL     1     -11.599  24.607  60.057  1.00  0.00    -0.275 OA
ATOM      5  C   UNL     1     -12.897  23.163  58.659  1.00  0.00     0.114 C 
ATOM      6  H   UNL     1     -11.383  24.182  56.880  1.00  0.00     0.164 HD
ENDBRANCH   1   2
BRANCH   1   7
ATOM      7  C   UNL     1     -10.278  26.462  56.515  1.00  0.00    -0.020 A 
ATOM      8  C   UNL     1     -11.439  26.374  55.732  1.00  0.00     0.022 A 
ATOM      9  C   UNL     1      -9.273  27.369  56.132  1.00  0.00     0.006 A 
ATOM     10  C   UNL     1     -11.588  27.182  54.604  1.00  0.00     0.018 A 
ATOM     11  C   UNL     1      -9.429  28.175  55.003  1.00  0.00     0.002 A 
ATOM     12  C   UNL     1     -10.590  28.083  54.236  1.00  0.00     0.016 A 
ATOM     13  Br  UNL     1     -13.161  27.056  53.559  1.00  0.00    -0.051 Br
ENDBRANCH   1   7
BRANCH   1  14
ATOM     14  C   UNL     1      -8.738  24.882  57.795  1.00  0.00     0.057 A 
ATOM     15  C   UNL     1      -8.204  24.114  56.796  1.00  0.00    -0.085 A 
ATOM     16  C   UNL     1      -8.063  25.144  59.098  1.00  0.00     0.341 A 
ATOM     17  C   UNL     1      -6.841  23.567  57.105  1.00  0.00     0.010 A 
ATOM     18  O   UNL     1      -6.793  24.637  59.288  1.00  0.00    -0.423 OA
ATOM     19  O   UNL     1      -8.593  25.785  60.004  1.00  0.00    -0.246 OA
ATOM     20  C   UNL     1      -6.143  22.751  56.194  1.00  0.00     0.011 A 
ATOM     21  C   UNL     1      -6.197  23.847  58.304  1.00  0.00     0.137 A 
ATOM     22  C   UNL     1      -4.868  22.247  56.478  1.00  0.00     0.001 A 
ATOM     23  C   UNL     1      -4.922  23.355  58.608  1.00  0.00     0.048 A 
ATOM     24  C   UNL     1      -4.254  22.550  57.689  1.00  0.00     0.004 A 
ATOM     25  O   UNL     1      -8.744  23.851  55.675  1.00  0.00    -0.872 OA
ENDBRANCH   1  14
TORSDOF 3
ENDMDL
MODEL 10
REMARK VINA RESULT:   -10.100      1.155      2.459
REMARK INTER + INTRA:         -12.189
REMARK INTER:                 -12.593
REMARK INTRA:                   0.403
REMARK UNBOUND:                -0.317
REMARK SMILES CC(=O)N[C@H](c1cccc(Br)c1)c1c([O-])c2ccccc2oc1=O
REMARK SMILES IDX 5 1 4 2 2 3 3 4 1 5 6 7 12 8 7 9 10 10 8 11 9 12 11 13 13 14
REMARK SMILES IDX 14 15 23 16 16 17 22 18 24 19 17 20 21 21 18 22 20 23 19 24
REMARK SMILES IDX 15 25
REMARK H PARENT 4 6
ROOT
ATOM      1  C   UNL     1      -9.505  25.669  57.585  1.00  0.00     0.149 C 
ENDROOT
BRANCH   1   2
ATOM      2  N   UNL     1      -9.043  26.612  58.588  1.00  0.00    -0.345 N 
ATOM      3  C   UNL     1      -9.063  26.408  59.934  1.00  0.00     0.217 C 
ATOM      4  O   UNL     1      -9.492  25.397  60.484  1.00  0.00    -0.275 OA
ATOM      5  C   UNL     1      -8.534  27.577  60.718  1.00  0.00     0.114 C 
ATOM      6  H   UNL     1      -8.733  27.502  58.179  1.00  0.00     0.164 HD
ENDBRANCH   1   2
BRANCH   1   7
ATOM      7  C   UNL     1      -8.351  24.757  57.165  1.00  0.00    -0.020 A 
ATOM      8  C   UNL     1      -7.670  24.987  55.959  1.00  0.00     0.022 A 
ATOM      9  C   UNL     1      -7.959  23.667  57.963  1.00  0.00     0.006 A 
ATOM     10  C   UNL     1      -6.622  24.152  55.574  1.00  0.00     0.018 A 
ATOM     11  C   UNL     1      -6.908  22.836  57.573  1.00  0.00     0.002 A 
ATOM     12  C   UNL     1      -6.236  23.078  56.376  1.00  0.00     0.016 A 
ATOM     13  Br  UNL     1      -5.710  24.477  53.948  1.00  0.00    -0.051 Br
ENDBRANCH   1   7
BRANCH   1  14
ATOM     14  C   UNL     1     -10.140  26.403  56.392  1.00  0.00     0.057 A 
ATOM     15  C   UNL     1     -11.307  26.047  55.773  1.00  0.00    -0.085 A 
ATOM     16  C   UNL     1      -9.295  27.560  55.978  1.00  0.00     0.341 A 
ATOM     17  C   UNL     1     -11.700  26.947  54.638  1.00  0.00     0.010 A 
ATOM     18  O   UNL     1      -9.747  28.363  54.950  1.00  0.00    -0.423 OA
ATOM     19  O   UNL     1      -8.218  27.820  56.512  1.00  0.00    -0.246 OA
ATOM     20  C   UNL     1     -12.869  26.727  53.883  1.00  0.00     0.011 A 
ATOM     21  C   UNL     1     -10.931  28.048  54.281  1.00  0.00     0.137 A 
ATOM     22  C   UNL     1     -13.239  27.571  52.830  1.00  0.00     0.001 A 
ATOM     23  C   UNL     1     -11.284  28.906  53.232  1.00  0.00     0.048 A 
ATOM     24  C   UNL     1     -12.445  28.665  52.503  1.00  0.00     0.004 A 
ATOM     25  O   UNL     1     -12.055  25.064  56.079  1.00  0.00    -0.872 OA
ENDBRANCH   1  14
TORSDOF 3
ENDMDL
MODEL 11
REMARK VINA RESULT:    -8.708      1.851      3.493
REMARK INTER + INTRA:         -10.553
REMARK INTER:                 -10.068
REMARK INTRA:                  -0.484
REMARK UNBOUND:                -0.317
REMARK SMILES CC(=O)N[C@H](c1cccc(Br)c1)c1c([O-])c2ccccc2oc1=O
REMARK SMILES IDX 5 1 4 2 2 3 3 4 1 5 6 7 12 8 7 9 10 10 8 11 9 12 11 13 13 14
REMARK SMILES IDX 14 15 23 16 16 17 22 18 24 19 17 20 21 21 18 22 20 23 19 24
REMARK SMILES IDX 15 25
REMARK H PARENT 4 6
ROOT
ATOM      1  C   UNL     1      -8.148  26.682  56.167  1.00  0.00     0.149 C 
ENDROOT
BRANCH   1   2
ATOM      2  N   UNL     1      -7.535  25.411  55.825  1.00  0.00    -0.345 N 
ATOM      3  C   UNL     1      -6.306  25.252  55.263  1.00  0.00     0.217 C 
ATOM      4  O   UNL     1      -5.551  26.170  54.954  1.00  0.00    -0.275 OA
ATOM      5  C   UNL     1      -5.952  23.812  55.009  1.00  0.00     0.114 C 
ATOM      6  H   UNL     1      -8.156  24.612  56.006  1.00  0.00     0.164 HD
ENDBRANCH   1   2
BRANCH   1   7
ATOM      7  C   UNL     1      -8.254  26.811  57.687  1.00  0.00    -0.020 A 
ATOM      8  C   UNL     1      -7.577  25.909  58.522  1.00  0.00     0.022 A 
ATOM      9  C   UNL     1      -9.038  27.818  58.278  1.00  0.00     0.006 A 
ATOM     10  C   UNL     1      -7.678  26.024  59.909  1.00  0.00     0.018 A 
ATOM     11  C   UNL     1      -9.135  27.929  59.666  1.00  0.00     0.002 A 
ATOM     12  C   UNL     1      -8.453  27.031  60.485  1.00  0.00     0.016 A 
ATOM     13  Br  UNL     1      -6.756  24.805  61.024  1.00  0.00    -0.051 Br
ENDBRANCH   1   7
BRANCH   1  14
ATOM     14  C   UNL     1      -9.508  26.843  55.466  1.00  0.00     0.057 A 
ATOM     15  C   UNL     1      -9.857  27.878  54.642  1.00  0.00    -0.085 A 
ATOM     16  C   UNL     1     -10.417  25.716  55.821  1.00  0.00     0.341 A 
ATOM     17  C   UNL     1     -11.247  27.778  54.085  1.00  0.00     0.010 A 
ATOM     18  O   UNL     1     -11.666  25.676  55.234  1.00  0.00    -0.423 OA
ATOM     19  O   UNL     1     -10.100  24.831  56.614  1.00  0.00    -0.246 OA
ATOM     20  C   UNL     1     -11.777  28.759  53.224  1.00  0.00     0.011 A 
ATOM     21  C   UNL     1     -12.078  26.705  54.386  1.00  0.00     0.137 A 
ATOM     22  C   UNL     1     -13.071  28.661  52.698  1.00  0.00     0.001 A 
ATOM     23  C   UNL     1     -13.374  26.587  53.870  1.00  0.00     0.048 A 
ATOM     24  C   UNL     1     -13.872  27.571  53.021  1.00  0.00     0.004 A 
ATOM     25  O   UNL     1      -9.124  28.867  54.319  1.00  0.00    -0.872 OA
ENDBRANCH   1  14
TORSDOF 3
ENDMDL
MODEL 12
REMARK VINA RESULT:    -8.662      3.042      6.594
REMARK INTER + INTRA:         -10.499
REMARK INTER:                 -10.736
REMARK INTRA:                   0.237
REMARK UNBOUND:                -0.317
REMARK SMILES CC(=O)N[C@H](c1cccc(Br)c1)c1c([O-])c2ccccc2oc1=O
REMARK SMILES IDX 5 1 4 2 2 3 3 4 1 5 6 7 12 8 7 9 10 10 8 11 9 12 11 13 13 14
REMARK SMILES IDX 14 15 23 16 16 17 22 18 24 19 17 20 21 21 18 22 20 23 19 24
REMARK SMILES IDX 15 25
REMARK H PARENT 4 6
ROOT
ATOM      1  C   UNL     1      -9.384  25.111  57.726  1.00  0.00     0.149 C 
ENDROOT
BRANCH   1   2
ATOM      2  N   UNL     1     -10.508  24.210  57.899  1.00  0.00    -0.345 N 
ATOM      3  C   UNL     1     -11.369  24.212  58.952  1.00  0.00     0.217 C 
ATOM      4  O   UNL     1     -11.301  24.974  59.913  1.00  0.00    -0.275 OA
ATOM      5  C   UNL     1     -12.425  23.144  58.858  1.00  0.00     0.114 C 
ATOM      6  H   UNL     1     -10.570  23.509  57.149  1.00  0.00     0.164 HD
ENDBRANCH   1   2
BRANCH   1   7
ATOM      7  C   UNL     1      -9.711  26.143  56.646  1.00  0.00    -0.020 A 
ATOM      8  C   UNL     1     -10.934  26.086  55.960  1.00  0.00     0.022 A 
ATOM      9  C   UNL     1      -8.796  27.157  56.309  1.00  0.00     0.006 A 
ATOM     10  C   UNL     1     -11.230  27.025  54.972  1.00  0.00     0.018 A 
ATOM     11  C   UNL     1      -9.098  28.094  55.320  1.00  0.00     0.002 A 
ATOM     12  C   UNL     1     -10.319  28.030  54.649  1.00  0.00     0.016 A 
ATOM     13  Br  UNL     1     -12.884  26.938  54.057  1.00  0.00    -0.051 Br
ENDBRANCH   1   7
BRANCH   1  14
ATOM     14  C   UNL     1      -8.094  24.329  57.422  1.00  0.00     0.057 A 
ATOM     15  C   UNL     1      -7.036  24.184  58.277  1.00  0.00    -0.085 A 
ATOM     16  C   UNL     1      -8.140  23.759  56.046  1.00  0.00     0.341 A 
ATOM     17  C   UNL     1      -5.909  23.361  57.725  1.00  0.00     0.010 A 
ATOM     18  O   UNL     1      -7.079  22.980  55.627  1.00  0.00    -0.423 OA
ATOM     19  O   UNL     1      -9.077  23.958  55.274  1.00  0.00    -0.246 OA
ATOM     20  C   UNL     1      -4.736  23.113  58.464  1.00  0.00     0.011 A 
ATOM     21  C   UNL     1      -5.971  22.796  56.456  1.00  0.00     0.137 A 
ATOM     22  C   UNL     1      -3.688  22.338  57.952  1.00  0.00     0.001 A 
ATOM     23  C   UNL     1      -4.936  22.018  55.926  1.00  0.00     0.048 A 
ATOM     24  C   UNL     1      -3.788  21.788  56.678  1.00  0.00     0.004 A 
ATOM     25  O   UNL     1      -6.943  24.660  59.453  1.00  0.00    -0.872 OA
ENDBRANCH   1  14
TORSDOF 3
ENDMDL
MODEL 13
REMARK VINA RESULT:    -8.637      2.406      3.258
REMARK INTER + INTRA:         -10.469
REMARK INTER:                 -11.107
REMARK INTRA:                   0.638
REMARK UNBOUND:                -0.317
REMARK SMILES CC(=O)N[C@H](c1cccc(Br)c1)c1c([O-])c2ccccc2oc1=O
REMARK SMILES IDX 5 1 4 2 2 3 3 4 1 5 6 7 12 8 7 9 10 10 8 11 9 12 11 13 13 14
REMARK SMILES IDX 14 15 23 16 16 17 22 18 24 19 17 20 21 21 18 22 20 23 19 24
REMARK SMILES IDX 15 25
REMARK H PARENT 4 6
ROOT
ATOM      1  C   UNL     1     -10.595  24.406  58.357  1.00  0.00     0.149 C 
ENDROOT
BRANCH   1   2
ATOM      2  N   UNL     1     -11.612  24.539  59.384  1.00  0.00    -0.345 N 
ATOM      3  C   UNL     1     -12.424  23.542  59.827  1.00  0.00     0.217 C 
ATOM      4  O   UNL     1     -12.415  22.389  59.404  1.00  0.00    -0.275 OA
ATOM      5  C   UNL     1     -13.392  23.992  60.888  1.00  0.00     0.114 C 
ATOM      6  H   UNL     1     -11.703  25.505  59.726  1.00  0.00     0.164 HD
ENDBRANCH   1   2
BRANCH   1   7
ATOM      7  C   UNL     1      -9.211  24.624  58.970  1.00  0.00    -0.020 A 
ATOM      8  C   UNL     1      -8.099  23.925  58.473  1.00  0.00     0.022 A 
ATOM      9  C   UNL     1      -9.024  25.510  60.046  1.00  0.00     0.006 A 
ATOM     10  C   UNL     1      -6.838  24.121  59.036  1.00  0.00     0.018 A 
ATOM     11  C   UNL     1      -7.760  25.703  60.604  1.00  0.00     0.002 A 
ATOM     12  C   UNL     1      -6.662  25.007  60.098  1.00  0.00     0.016 A 
ATOM     13  Br  UNL     1      -5.347  23.176  58.354  1.00  0.00    -0.051 Br
ENDBRANCH   1   7
BRANCH   1  14
ATOM     14  C   UNL     1     -10.874  25.356  57.179  1.00  0.00     0.057 A 
ATOM     15  C   UNL     1     -10.051  26.368  56.766  1.00  0.00    -0.085 A 
ATOM     16  C   UNL     1     -12.187  25.039  56.550  1.00  0.00     0.341 A 
ATOM     17  C   UNL     1     -10.566  27.134  55.583  1.00  0.00     0.010 A 
ATOM     18  O   UNL     1     -12.571  25.765  55.440  1.00  0.00    -0.423 OA
ATOM     19  O   UNL     1     -12.937  24.164  56.981  1.00  0.00    -0.246 OA
ATOM     20  C   UNL     1      -9.852  28.214  55.027  1.00  0.00     0.011 A 
ATOM     21  C   UNL     1     -11.772  26.810  54.973  1.00  0.00     0.137 A 
ATOM     22  C   UNL     1     -10.330  28.924  53.919  1.00  0.00     0.001 A 
ATOM     23  C   UNL     1     -12.266  27.506  53.863  1.00  0.00     0.048 A 
ATOM     24  C   UNL     1     -11.541  28.568  53.334  1.00  0.00     0.004 A 
ATOM     25  O   UNL     1      -8.930  26.686  57.276  1.00  0.00    -0.872 OA
ENDBRANCH   1  14
TORSDOF 3
ENDMDL
