MODEL 1
REMARK VINA RESULT:    -5.660      0.000      0.000
REMARK INTER + INTRA:          -7.275
REMARK INTER:                  -6.652
REMARK INTRA:                  -0.623
REMARK UNBOUND:                -0.623
REMARK SMILES CC(=O)N[C@@H](c1cccc(Br)c1)c1c([O-])c2ccccc2oc1=O
REMARK SMILES IDX 5 1 4 2 2 3 3 4 1 5 6 7 12 8 7 9 10 10 8 11 9 12 11 13 13 14
REMARK SMILES IDX 14 15 23 16 16 17 22 18 24 19 17 20 21 21 18 22 20 23 19 24
REMARK SMILES IDX 15 25
REMARK H PARENT 4 6
ROOT
ATOM      1  C   UNL     1      -2.055  33.378  51.597  1.00  0.00     0.149 C 
ENDROOT
BRANCH   1   2
ATOM      2  N   UNL     1      -1.185  32.255  51.297  1.00  0.00    -0.345 N 
ATOM      3  C   UNL     1      -1.582  30.961  51.165  1.00  0.00     0.217 C 
ATOM      4  O   UNL     1      -2.741  30.568  51.268  1.00  0.00    -0.275 OA
ATOM      5  C   UNL     1      -0.452  30.024  50.833  1.00  0.00     0.114 C 
ATOM      6  H   UNL     1      -0.211  32.542  51.137  1.00  0.00     0.164 HD
ENDBRANCH   1   2
BRANCH   1   7
ATOM      7  C   UNL     1      -1.227  34.532  52.165  1.00  0.00    -0.020 A 
ATOM      8  C   UNL     1      -1.208  34.776  53.548  1.00  0.00     0.022 A 
ATOM      9  C   UNL     1      -0.464  35.361  51.324  1.00  0.00     0.006 A 
ATOM     10  C   UNL     1      -0.452  35.826  54.066  1.00  0.00     0.018 A 
ATOM     11  C   UNL     1       0.292  36.411  51.848  1.00  0.00     0.002 A 
ATOM     12  C   UNL     1       0.298  36.646  53.222  1.00  0.00     0.016 A 
ATOM     13  Br  UNL     1      -0.438  36.145  55.931  1.00  0.00    -0.051 Br
ENDBRANCH   1   7
BRANCH   1  14
ATOM     14  C   UNL     1      -2.868  33.791  50.358  1.00  0.00     0.057 A 
ATOM     15  C   UNL     1      -2.524  33.527  49.060  1.00  0.00    -0.085 A 
ATOM     16  C   UNL     1      -4.111  34.508  50.762  1.00  0.00     0.341 A 
ATOM     17  C   UNL     1      -3.498  34.053  48.048  1.00  0.00     0.010 A 
ATOM     18  O   UNL     1      -4.935  34.996  49.768  1.00  0.00    -0.423 OA
ATOM     19  O   UNL     1      -4.428  34.676  51.940  1.00  0.00    -0.246 OA
ATOM     20  C   UNL     1      -3.307  33.867  46.665  1.00  0.00     0.011 A 
ATOM     21  C   UNL     1      -4.635  34.757  48.426  1.00  0.00     0.137 A 
ATOM     22  C   UNL     1      -4.212  34.367  45.719  1.00  0.00     0.001 A 
ATOM     23  C   UNL     1      -5.552  35.265  47.498  1.00  0.00     0.048 A 
ATOM     24  C   UNL     1      -5.338  35.068  46.137  1.00  0.00     0.004 A 
ATOM     25  O   UNL     1      -1.485  32.908  48.666  1.00  0.00    -0.872 OA
ENDBRANCH   1  14
TORSDOF 3
ENDMDL
MODEL 2
REMARK VINA RESULT:    -5.516      2.964      6.258
REMARK INTER + INTRA:          -7.106
REMARK INTER:                  -6.061
REMARK INTRA:                  -1.044
REMARK UNBOUND:                -0.623
REMARK SMILES CC(=O)N[C@@H](c1cccc(Br)c1)c1c([O-])c2ccccc2oc1=O
REMARK SMILES IDX 5 1 4 2 2 3 3 4 1 5 6 7 12 8 7 9 10 10 8 11 9 12 11 13 13 14
REMARK SMILES IDX 14 15 23 16 16 17 22 18 24 19 17 20 21 21 18 22 20 23 19 24
REMARK SMILES IDX 15 25
REMARK H PARENT 4 6
ROOT
ATOM      1  C   UNL     1      -3.082  33.463  48.630  1.00  0.00     0.149 C 
ENDROOT
BRANCH   1   2
ATOM      2  N   UNL     1      -4.201  34.315  48.268  1.00  0.00    -0.345 N 
ATOM      3  C   UNL     1      -5.210  33.977  47.420  1.00  0.00     0.217 C 
ATOM      4  O   UNL     1      -5.317  32.893  46.854  1.00  0.00    -0.275 OA
ATOM      5  C   UNL     1      -6.237  35.064  47.257  1.00  0.00     0.114 C 
ATOM      6  H   UNL     1      -4.190  35.213  48.768  1.00  0.00     0.164 HD
ENDBRANCH   1   2
BRANCH   1   7
ATOM      7  C   UNL     1      -1.984  33.581  47.572  1.00  0.00    -0.020 A 
ATOM      8  C   UNL     1      -1.450  34.837  47.243  1.00  0.00     0.022 A 
ATOM      9  C   UNL     1      -1.479  32.443  46.919  1.00  0.00     0.006 A 
ATOM     10  C   UNL     1      -0.446  34.945  46.281  1.00  0.00     0.018 A 
ATOM     11  C   UNL     1      -0.474  32.556  45.957  1.00  0.00     0.002 A 
ATOM     12  C   UNL     1       0.044  33.810  45.635  1.00  0.00     0.016 A 
ATOM     13  Br  UNL     1       0.261  36.645  45.846  1.00  0.00    -0.051 Br
ENDBRANCH   1   7
BRANCH   1  14
ATOM     14  C   UNL     1      -2.575  33.792  50.045  1.00  0.00     0.057 A 
ATOM     15  C   UNL     1      -2.622  35.025  50.636  1.00  0.00    -0.085 A 
ATOM     16  C   UNL     1      -2.037  32.568  50.706  1.00  0.00     0.341 A 
ATOM     17  C   UNL     1      -2.048  35.062  52.023  1.00  0.00     0.010 A 
ATOM     18  O   UNL     1      -1.491  32.696  51.967  1.00  0.00    -0.423 OA
ATOM     19  O   UNL     1      -2.066  31.459  50.174  1.00  0.00    -0.246 OA
ATOM     20  C   UNL     1      -2.020  36.246  52.785  1.00  0.00     0.011 A 
ATOM     21  C   UNL     1      -1.511  33.929  52.621  1.00  0.00     0.137 A 
ATOM     22  C   UNL     1      -1.477  36.283  54.075  1.00  0.00     0.001 A 
ATOM     23  C   UNL     1      -0.963  33.943  53.909  1.00  0.00     0.048 A 
ATOM     24  C   UNL     1      -0.947  35.128  54.639  1.00  0.00     0.004 A 
ATOM     25  O   UNL     1      -3.081  36.092  50.121  1.00  0.00    -0.872 OA
ENDBRANCH   1  14
TORSDOF 3
ENDMDL
MODEL 3
REMARK VINA RESULT:    -4.714      2.485      5.917
REMARK INTER + INTRA:          -6.163
REMARK INTER:                  -5.510
REMARK INTRA:                  -0.653
REMARK UNBOUND:                -0.623
REMARK SMILES CC(=O)N[C@@H](c1cccc(Br)c1)c1c([O-])c2ccccc2oc1=O
REMARK SMILES IDX 5 1 4 2 2 3 3 4 1 5 6 7 12 8 7 9 10 10 8 11 9 12 11 13 13 14
REMARK SMILES IDX 14 15 23 16 16 17 22 18 24 19 17 20 21 21 18 22 20 23 19 24
REMARK SMILES IDX 15 25
REMARK H PARENT 4 6
ROOT
ATOM      1  C   UNL     1      -1.659  32.993  49.179  1.00  0.00     0.149 C 
ENDROOT
BRANCH   1   2
ATOM      2  N   UNL     1      -1.753  31.618  49.633  1.00  0.00    -0.345 N 
ATOM      3  C   UNL     1      -0.789  30.943  50.316  1.00  0.00     0.217 C 
ATOM      4  O   UNL     1       0.292  31.416  50.655  1.00  0.00    -0.275 OA
ATOM      5  C   UNL     1      -1.186  29.534  50.667  1.00  0.00     0.114 C 
ATOM      6  H   UNL     1      -2.668  31.197  49.429  1.00  0.00     0.164 HD
ENDBRANCH   1   2
BRANCH   1   7
ATOM      7  C   UNL     1      -2.946  33.383  48.450  1.00  0.00    -0.020 A 
ATOM      8  C   UNL     1      -3.483  34.671  48.603  1.00  0.00     0.022 A 
ATOM      9  C   UNL     1      -3.608  32.473  47.609  1.00  0.00     0.006 A 
ATOM     10  C   UNL     1      -4.655  35.028  47.937  1.00  0.00     0.018 A 
ATOM     11  C   UNL     1      -4.781  32.835  46.943  1.00  0.00     0.002 A 
ATOM     12  C   UNL     1      -5.308  34.115  47.109  1.00  0.00     0.016 A 
ATOM     13  Br  UNL     1      -5.369  36.766  48.155  1.00  0.00    -0.051 Br
ENDBRANCH   1   7
BRANCH   1  14
ATOM     14  C   UNL     1      -1.335  33.939  50.349  1.00  0.00     0.057 A 
ATOM     15  C   UNL     1      -1.925  33.902  51.583  1.00  0.00    -0.085 A 
ATOM     16  C   UNL     1      -0.263  34.900  49.964  1.00  0.00     0.341 A 
ATOM     17  C   UNL     1      -1.423  34.949  52.534  1.00  0.00     0.010 A 
ATOM     18  O   UNL     1       0.114  35.858  50.884  1.00  0.00    -0.423 OA
ATOM     19  O   UNL     1       0.295  34.870  48.868  1.00  0.00    -0.246 OA
ATOM     20  C   UNL     1      -1.913  35.055  53.850  1.00  0.00     0.011 A 
ATOM     21  C   UNL     1      -0.453  35.870  52.159  1.00  0.00     0.137 A 
ATOM     22  C   UNL     1      -1.451  36.038  54.735  1.00  0.00     0.001 A 
ATOM     23  C   UNL     1       0.023  36.860  53.027  1.00  0.00     0.048 A 
ATOM     24  C   UNL     1      -0.479  36.943  54.322  1.00  0.00     0.004 A 
ATOM     25  O   UNL     1      -2.831  33.095  51.963  1.00  0.00    -0.872 OA
ENDBRANCH   1  14
TORSDOF 3
ENDMDL
MODEL 4
REMARK VINA RESULT:    -4.522      0.661      2.032
REMARK INTER + INTRA:          -5.938
REMARK INTER:                  -6.215
REMARK INTRA:                   0.277
REMARK UNBOUND:                -0.623
REMARK SMILES CC(=O)N[C@@H](c1cccc(Br)c1)c1c([O-])c2ccccc2oc1=O
REMARK SMILES IDX 5 1 4 2 2 3 3 4 1 5 6 7 12 8 7 9 10 10 8 11 9 12 11 13 13 14
REMARK SMILES IDX 14 15 23 16 16 17 22 18 24 19 17 20 21 21 18 22 20 23 19 24
REMARK SMILES IDX 15 25
REMARK H PARENT 4 6
ROOT
ATOM      1  C   UNL     1      -1.985  33.032  51.303  1.00  0.00     0.149 C 
ENDROOT
BRANCH   1   2
ATOM      2  N   UNL     1      -1.112  31.892  51.088  1.00  0.00    -0.345 N 
ATOM      3  C   UNL     1      -1.456  30.588  51.267  1.00  0.00     0.217 C 
ATOM      4  O   UNL     1      -2.564  30.197  51.622  1.00  0.00    -0.275 OA
ATOM      5  C   UNL     1      -0.340  29.631  50.946  1.00  0.00     0.114 C 
ATOM      6  H   UNL     1      -0.189  32.165  50.727  1.00  0.00     0.164 HD
ENDBRANCH   1   2
BRANCH   1   7
ATOM      7  C   UNL     1      -1.184  34.188  51.904  1.00  0.00    -0.020 A 
ATOM      8  C   UNL     1      -1.173  34.395  53.292  1.00  0.00     0.022 A 
ATOM      9  C   UNL     1      -0.436  35.055  51.088  1.00  0.00     0.006 A 
ATOM     10  C   UNL     1      -0.440  35.447  53.841  1.00  0.00     0.018 A 
ATOM     11  C   UNL     1       0.297  36.106  51.642  1.00  0.00     0.002 A 
ATOM     12  C   UNL     1       0.294  36.305  53.022  1.00  0.00     0.016 A 
ATOM     13  Br  UNL     1      -0.439  35.716  55.714  1.00  0.00    -0.051 Br
ENDBRANCH   1   7
BRANCH   1  14
ATOM     14  C   UNL     1      -2.703  33.428  50.001  1.00  0.00     0.057 A 
ATOM     15  C   UNL     1      -3.880  34.122  49.926  1.00  0.00    -0.085 A 
ATOM     16  C   UNL     1      -1.927  32.969  48.814  1.00  0.00     0.341 A 
ATOM     17  C   UNL     1      -4.360  34.365  48.525  1.00  0.00     0.010 A 
ATOM     18  O   UNL     1      -2.458  33.197  47.560  1.00  0.00    -0.423 OA
ATOM     19  O   UNL     1      -0.839  32.402  48.910  1.00  0.00    -0.246 OA
ATOM     20  C   UNL     1      -5.550  35.070  48.258  1.00  0.00     0.011 A 
ATOM     21  C   UNL     1      -3.655  33.901  47.421  1.00  0.00     0.137 A 
ATOM     22  C   UNL     1      -6.002  35.289  46.950  1.00  0.00     0.001 A 
ATOM     23  C   UNL     1      -4.089  34.109  46.106  1.00  0.00     0.048 A 
ATOM     24  C   UNL     1      -5.270  34.807  45.871  1.00  0.00     0.004 A 
ATOM     25  O   UNL     1      -4.571  34.546  50.905  1.00  0.00    -0.872 OA
ENDBRANCH   1  14
TORSDOF 3
ENDMDL
MODEL 5
REMARK VINA RESULT:    -4.521      1.904      5.135
REMARK INTER + INTRA:          -5.936
REMARK INTER:                  -5.056
REMARK INTRA:                  -0.881
REMARK UNBOUND:                -0.623
REMARK SMILES CC(=O)N[C@@H](c1cccc(Br)c1)c1c([O-])c2ccccc2oc1=O
REMARK SMILES IDX 5 1 4 2 2 3 3 4 1 5 6 7 12 8 7 9 10 10 8 11 9 12 11 13 13 14
REMARK SMILES IDX 14 15 23 16 16 17 22 18 24 19 17 20 21 21 18 22 20 23 19 24
REMARK SMILES IDX 15 25
REMARK H PARENT 4 6
ROOT
ATOM      1  C   UNL     1      -2.641  34.959  49.826  1.00  0.00     0.149 C 
ENDROOT
BRANCH   1   2
ATOM      2  N   UNL     1      -3.926  34.868  49.157  1.00  0.00    -0.345 N 
ATOM      3  C   UNL     1      -4.170  35.210  47.863  1.00  0.00     0.217 C 
ATOM      4  O   UNL     1      -3.326  35.633  47.078  1.00  0.00    -0.275 OA
ATOM      5  C   UNL     1      -5.600  34.986  47.450  1.00  0.00     0.114 C 
ATOM      6  H   UNL     1      -4.654  34.458  49.756  1.00  0.00     0.164 HD
ENDBRANCH   1   2
BRANCH   1   7
ATOM      7  C   UNL     1      -2.812  35.656  51.176  1.00  0.00    -0.020 A 
ATOM      8  C   UNL     1      -1.725  35.768  52.058  1.00  0.00     0.022 A 
ATOM      9  C   UNL     1      -4.049  36.206  51.558  1.00  0.00     0.006 A 
ATOM     10  C   UNL     1      -1.881  36.407  53.288  1.00  0.00     0.018 A 
ATOM     11  C   UNL     1      -4.199  36.844  52.791  1.00  0.00     0.002 A 
ATOM     12  C   UNL     1      -3.113  36.943  53.660  1.00  0.00     0.016 A 
ATOM     13  Br  UNL     1      -0.408  36.548  54.468  1.00  0.00    -0.051 Br
ENDBRANCH   1   7
BRANCH   1  14
ATOM     14  C   UNL     1      -1.988  33.572  49.958  1.00  0.00     0.057 A 
ATOM     15  C   UNL     1      -2.391  32.586  50.818  1.00  0.00    -0.085 A 
ATOM     16  C   UNL     1      -0.857  33.431  48.997  1.00  0.00     0.341 A 
ATOM     17  C   UNL     1      -1.569  31.333  50.742  1.00  0.00     0.010 A 
ATOM     18  O   UNL     1      -0.125  32.261  49.019  1.00  0.00    -0.423 OA
ATOM     19  O   UNL     1      -0.557  34.311  48.191  1.00  0.00    -0.246 OA
ATOM     20  C   UNL     1      -1.844  30.213  51.550  1.00  0.00     0.011 A 
ATOM     21  C   UNL     1      -0.489  31.220  49.875  1.00  0.00     0.137 A 
ATOM     22  C   UNL     1      -1.071  29.046  51.485  1.00  0.00     0.001 A 
ATOM     23  C   UNL     1       0.296  30.064  49.795  1.00  0.00     0.048 A 
ATOM     24  C   UNL     1       0.003  28.972  50.605  1.00  0.00     0.004 A 
ATOM     25  O   UNL     1      -3.355  32.653  51.644  1.00  0.00    -0.872 OA
ENDBRANCH   1  14
TORSDOF 3
ENDMDL
MODEL 6
REMARK VINA RESULT:    -3.959      3.424      6.646
REMARK INTER + INTRA:          -5.276
REMARK INTER:                  -4.529
REMARK INTRA:                  -0.747
REMARK UNBOUND:                -0.623
REMARK SMILES CC(=O)N[C@@H](c1cccc(Br)c1)c1c([O-])c2ccccc2oc1=O
REMARK SMILES IDX 5 1 4 2 2 3 3 4 1 5 6 7 12 8 7 9 10 10 8 11 9 12 11 13 13 14
REMARK SMILES IDX 14 15 23 16 16 17 22 18 24 19 17 20 21 21 18 22 20 23 19 24
REMARK SMILES IDX 15 25
REMARK H PARENT 4 6
ROOT
ATOM      1  C   UNL     1      -2.412  35.853  48.701  1.00  0.00     0.149 C 
ENDROOT
BRANCH   1   2
ATOM      2  N   UNL     1      -1.189  36.127  47.968  1.00  0.00    -0.345 N 
ATOM      3  C   UNL     1      -1.120  36.630  46.706  1.00  0.00     0.217 C 
ATOM      4  O   UNL     1      -2.090  36.936  46.018  1.00  0.00    -0.275 OA
ATOM      5  C   UNL     1       0.292  36.822  46.221  1.00  0.00     0.114 C 
ATOM      6  H   UNL     1      -0.345  35.947  48.528  1.00  0.00     0.164 HD
ENDBRANCH   1   2
BRANCH   1   7
ATOM      7  C   UNL     1      -3.192  34.740  48.001  1.00  0.00    -0.020 A 
ATOM      8  C   UNL     1      -4.384  35.032  47.318  1.00  0.00     0.022 A 
ATOM      9  C   UNL     1      -2.733  33.411  48.015  1.00  0.00     0.006 A 
ATOM     10  C   UNL     1      -5.094  34.017  46.677  1.00  0.00     0.018 A 
ATOM     11  C   UNL     1      -3.448  32.399  47.371  1.00  0.00     0.002 A 
ATOM     12  C   UNL     1      -4.632  32.702  46.702  1.00  0.00     0.016 A 
ATOM     13  Br  UNL     1      -6.700  34.426  45.764  1.00  0.00    -0.051 Br
ENDBRANCH   1   7
BRANCH   1  14
ATOM     14  C   UNL     1      -2.110  35.524  50.173  1.00  0.00     0.057 A 
ATOM     15  C   UNL     1      -0.988  34.886  50.628  1.00  0.00    -0.085 A 
ATOM     16  C   UNL     1      -3.205  36.018  51.056  1.00  0.00     0.341 A 
ATOM     17  C   UNL     1      -0.956  34.687  52.116  1.00  0.00     0.010 A 
ATOM     18  O   UNL     1      -3.119  35.759  52.409  1.00  0.00    -0.423 OA
ATOM     19  O   UNL     1      -4.173  36.645  50.626  1.00  0.00    -0.246 OA
ATOM     20  C   UNL     1       0.126  34.055  52.758  1.00  0.00     0.011 A 
ATOM     21  C   UNL     1      -1.998  35.112  52.931  1.00  0.00     0.137 A 
ATOM     22  C   UNL     1       0.152  33.861  54.146  1.00  0.00     0.001 A 
ATOM     23  C   UNL     1      -1.992  34.928  54.319  1.00  0.00     0.048 A 
ATOM     24  C   UNL     1      -0.911  34.299  54.928  1.00  0.00     0.004 A 
ATOM     25  O   UNL     1      -0.022  34.460  49.920  1.00  0.00    -0.872 OA
ENDBRANCH   1  14
TORSDOF 3
ENDMDL
MODEL 7
REMARK VINA RESULT:    -3.888      2.636      4.336
REMARK INTER + INTRA:          -5.193
REMARK INTER:                  -4.070
REMARK INTRA:                  -1.122
REMARK UNBOUND:                -0.623
REMARK SMILES CC(=O)N[C@@H](c1cccc(Br)c1)c1c([O-])c2ccccc2oc1=O
REMARK SMILES IDX 5 1 4 2 2 3 3 4 1 5 6 7 12 8 7 9 10 10 8 11 9 12 11 13 13 14
REMARK SMILES IDX 14 15 23 16 16 17 22 18 24 19 17 20 21 21 18 22 20 23 19 24
REMARK SMILES IDX 15 25
REMARK H PARENT 4 6
ROOT
ATOM      1  C   UNL     1      -0.825  34.069  51.005  1.00  0.00     0.149 C 
ENDROOT
BRANCH   1   2
ATOM      2  N   UNL     1      -1.396  34.110  52.339  1.00  0.00    -0.345 N 
ATOM      3  C   UNL     1      -1.014  34.954  53.336  1.00  0.00     0.217 C 
ATOM      4  O   UNL     1      -0.139  35.810  53.235  1.00  0.00    -0.275 OA
ATOM      5  C   UNL     1      -1.805  34.771  54.603  1.00  0.00     0.114 C 
ATOM      6  H   UNL     1      -2.178  33.454  52.454  1.00  0.00     0.164 HD
ENDBRANCH   1   2
BRANCH   1   7
ATOM      7  C   UNL     1      -0.524  32.619  50.620  1.00  0.00    -0.020 A 
ATOM      8  C   UNL     1      -0.807  31.576  51.515  1.00  0.00     0.022 A 
ATOM      9  C   UNL     1       0.027  32.300  49.366  1.00  0.00     0.006 A 
ATOM     10  C   UNL     1      -0.536  30.254  51.163  1.00  0.00     0.018 A 
ATOM     11  C   UNL     1       0.297  30.975  49.019  1.00  0.00     0.002 A 
ATOM     12  C   UNL     1       0.017  29.949  49.919  1.00  0.00     0.016 A 
ATOM     13  Br  UNL     1      -0.919  28.858  52.382  1.00  0.00    -0.051 Br
ENDBRANCH   1   7
BRANCH   1  14
ATOM     14  C   UNL     1      -1.746  34.768  49.990  1.00  0.00     0.057 A 
ATOM     15  C   UNL     1      -3.107  34.642  49.937  1.00  0.00    -0.085 A 
ATOM     16  C   UNL     1      -0.951  35.633  49.071  1.00  0.00     0.341 A 
ATOM     17  C   UNL     1      -3.754  35.433  48.838  1.00  0.00     0.010 A 
ATOM     18  O   UNL     1      -1.619  36.296  48.061  1.00  0.00    -0.423 OA
ATOM     19  O   UNL     1       0.266  35.777  49.181  1.00  0.00    -0.246 OA
ATOM     20  C   UNL     1      -5.149  35.427  48.639  1.00  0.00     0.011 A 
ATOM     21  C   UNL     1      -3.007  36.205  47.958  1.00  0.00     0.137 A 
ATOM     22  C   UNL     1      -5.752  36.158  47.608  1.00  0.00     0.001 A 
ATOM     23  C   UNL     1      -3.590  36.943  46.920  1.00  0.00     0.048 A 
ATOM     24  C   UNL     1      -4.970  36.919  46.745  1.00  0.00     0.004 A 
ATOM     25  O   UNL     1      -3.830  33.931  50.704  1.00  0.00    -0.872 OA
ENDBRANCH   1  14
TORSDOF 3
ENDMDL
MODEL 8
REMARK VINA RESULT:    -3.178      2.505      5.972
REMARK INTER + INTRA:          -4.358
REMARK INTER:                  -4.421
REMARK INTRA:                   0.063
REMARK UNBOUND:                -0.623
REMARK SMILES CC(=O)N[C@@H](c1cccc(Br)c1)c1c([O-])c2ccccc2oc1=O
REMARK SMILES IDX 5 1 4 2 2 3 3 4 1 5 6 7 12 8 7 9 10 10 8 11 9 12 11 13 13 14
REMARK SMILES IDX 14 15 23 16 16 17 22 18 24 19 17 20 21 21 18 22 20 23 19 24
REMARK SMILES IDX 15 25
REMARK H PARENT 4 6
ROOT
ATOM      1  C   UNL     1      -2.469  33.540  50.360  1.00  0.00     0.149 C 
ENDROOT
BRANCH   1   2
ATOM      2  N   UNL     1      -2.472  34.374  49.172  1.00  0.00    -0.345 N 
ATOM      3  C   UNL     1      -3.477  34.444  48.257  1.00  0.00     0.217 C 
ATOM      4  O   UNL     1      -4.530  33.816  48.323  1.00  0.00    -0.275 OA
ATOM      5  C   UNL     1      -3.197  35.414  47.141  1.00  0.00     0.114 C 
ATOM      6  H   UNL     1      -1.636  34.969  49.105  1.00  0.00     0.164 HD
ENDBRANCH   1   2
BRANCH   1   7
ATOM      7  C   UNL     1      -1.511  32.365  50.161  1.00  0.00    -0.020 A 
ATOM      8  C   UNL     1      -1.563  31.256  51.020  1.00  0.00     0.022 A 
ATOM      9  C   UNL     1      -0.572  32.362  49.114  1.00  0.00     0.006 A 
ATOM     10  C   UNL     1      -0.691  30.183  50.837  1.00  0.00     0.018 A 
ATOM     11  C   UNL     1       0.297  31.285  48.935  1.00  0.00     0.002 A 
ATOM     12  C   UNL     1       0.240  30.193  49.799  1.00  0.00     0.016 A 
ATOM     13  Br  UNL     1      -0.770  28.697  52.005  1.00  0.00    -0.051 Br
ENDBRANCH   1   7
BRANCH   1  14
ATOM     14  C   UNL     1      -2.133  34.368  51.613  1.00  0.00     0.057 A 
ATOM     15  C   UNL     1      -0.947  34.325  52.296  1.00  0.00    -0.085 A 
ATOM     16  C   UNL     1      -3.276  35.252  51.979  1.00  0.00     0.341 A 
ATOM     17  C   UNL     1      -0.894  35.234  53.489  1.00  0.00     0.010 A 
ATOM     18  O   UNL     1      -3.161  36.028  53.115  1.00  0.00    -0.423 OA
ATOM     19  O   UNL     1      -4.307  35.316  51.310  1.00  0.00    -0.246 OA
ATOM     20  C   UNL     1       0.251  35.325  54.304  1.00  0.00     0.011 A 
ATOM     21  C   UNL     1      -1.976  36.026  53.851  1.00  0.00     0.137 A 
ATOM     22  C   UNL     1       0.298  36.166  55.423  1.00  0.00     0.001 A 
ATOM     23  C   UNL     1      -1.951  36.874  54.966  1.00  0.00     0.048 A 
ATOM     24  C   UNL     1      -0.807  36.943  55.755  1.00  0.00     0.004 A 
ATOM     25  O   UNL     1       0.059  33.601  52.016  1.00  0.00    -0.872 OA
ENDBRANCH   1  14
TORSDOF 3
ENDMDL
MODEL 9
REMARK VINA RESULT:    -2.913      3.132      6.259
REMARK INTER + INTRA:          -4.047
REMARK INTER:                  -4.112
REMARK INTRA:                   0.065
REMARK UNBOUND:                -0.623
REMARK SMILES CC(=O)N[C@@H](c1cccc(Br)c1)c1c([O-])c2ccccc2oc1=O
REMARK SMILES IDX 5 1 4 2 2 3 3 4 1 5 6 7 12 8 7 9 10 10 8 11 9 12 11 13 13 14
REMARK SMILES IDX 14 15 23 16 16 17 22 18 24 19 17 20 21 21 18 22 20 23 19 24
REMARK SMILES IDX 15 25
REMARK H PARENT 4 6
ROOT
ATOM      1  C   UNL     1      -0.472  34.669  48.371  1.00  0.00     0.149 C 
ENDROOT
BRANCH   1   2
ATOM      2  N   UNL     1      -0.251  33.327  47.865  1.00  0.00    -0.345 N 
ATOM      3  C   UNL     1       0.102  33.010  46.590  1.00  0.00     0.217 C 
ATOM      4  O   UNL     1       0.296  33.826  45.692  1.00  0.00    -0.275 OA
ATOM      5  C   UNL     1       0.276  31.532  46.372  1.00  0.00     0.114 C 
ATOM      6  H   UNL     1      -0.339  32.610  48.597  1.00  0.00     0.164 HD
ENDBRANCH   1   2
BRANCH   1   7
ATOM      7  C   UNL     1      -1.701  35.278  47.694  1.00  0.00    -0.020 A 
ATOM      8  C   UNL     1      -2.977  34.740  47.929  1.00  0.00     0.022 A 
ATOM      9  C   UNL     1      -1.585  36.386  46.837  1.00  0.00     0.006 A 
ATOM     10  C   UNL     1      -4.098  35.297  47.314  1.00  0.00     0.018 A 
ATOM     11  C   UNL     1      -2.711  36.939  46.225  1.00  0.00     0.002 A 
ATOM     12  C   UNL     1      -3.971  36.393  46.461  1.00  0.00     0.016 A 
ATOM     13  Br  UNL     1      -5.811  34.560  47.637  1.00  0.00    -0.051 Br
ENDBRANCH   1   7
BRANCH   1  14
ATOM     14  C   UNL     1      -0.585  34.668  49.905  1.00  0.00     0.057 A 
ATOM     15  C   UNL     1      -0.364  35.748  50.716  1.00  0.00    -0.085 A 
ATOM     16  C   UNL     1      -0.995  33.323  50.399  1.00  0.00     0.341 A 
ATOM     17  C   UNL     1      -0.538  35.461  52.179  1.00  0.00     0.010 A 
ATOM     18  O   UNL     1      -1.094  33.131  51.763  1.00  0.00    -0.423 OA
ATOM     19  O   UNL     1      -1.249  32.386  49.642  1.00  0.00    -0.246 OA
ATOM     20  C   UNL     1      -0.357  36.457  53.159  1.00  0.00     0.011 A 
ATOM     21  C   UNL     1      -0.880  34.196  52.639  1.00  0.00     0.137 A 
ATOM     22  C   UNL     1      -0.511  36.187  54.525  1.00  0.00     0.001 A 
ATOM     23  C   UNL     1      -1.038  33.905  54.000  1.00  0.00     0.048 A 
ATOM     24  C   UNL     1      -0.852  34.907  54.947  1.00  0.00     0.004 A 
ATOM     25  O   UNL     1      -0.027  36.916  50.344  1.00  0.00    -0.872 OA
ENDBRANCH   1  14
TORSDOF 3
ENDMDL
