MODEL 1
REMARK VINA RESULT:    -5.914      0.000      0.000
REMARK INTER + INTRA:          -8.307
REMARK INTER:                  -7.297
REMARK INTRA:                  -1.010
REMARK UNBOUND:                -1.010
REMARK SMILES CC(=O)N[C@H](c1cccc([N+](=O)[O-])c1)c1c([O-])c2ccccc2oc1=O
REMARK SMILES IDX 6 1 14 2 10 3 9 4 8 5 7 6 5 7 4 8 2 9 3 10 1 11 15 13 16 14
REMARK SMILES IDX 25 15 18 16 24 17 26 18 19 19 23 20 20 21 22 22 21 23 17 24
REMARK SMILES IDX 11 25 12 26 13 27
REMARK H PARENT 4 12
ROOT
ATOM      1  C   UNL     1      -0.585  34.325  50.994  1.00  0.00    -0.014 A 
ATOM      2  C   UNL     1      -0.805  34.259  52.380  1.00  0.00     0.091 A 
ATOM      3  C   UNL     1      -0.527  35.372  53.185  1.00  0.00     0.269 A 
ATOM      4  C   UNL     1      -0.031  36.557  52.623  1.00  0.00     0.085 A 
ATOM      5  C   UNL     1       0.185  36.627  51.248  1.00  0.00     0.007 A 
ATOM      6  C   UNL     1      -0.093  35.522  50.442  1.00  0.00     0.007 A 
ENDROOT
BRANCH   1   7
ATOM      7  C   UNL     1      -0.895  33.118  50.107  1.00  0.00     0.150 C 
BRANCH   7   8
ATOM      8  N   UNL     1      -1.235  31.978  50.940  1.00  0.00    -0.345 N 
ATOM      9  C   UNL     1      -0.657  30.748  50.866  1.00  0.00     0.217 C 
ATOM     10  O   UNL     1       0.229  30.437  50.074  1.00  0.00    -0.275 OA
ATOM     11  C   UNL     1      -1.236  29.759  51.841  1.00  0.00     0.114 C 
ATOM     12  H   UNL     1      -2.006  32.177  51.590  1.00  0.00     0.164 HD
ENDBRANCH   7   8
BRANCH   7  13
ATOM     13  C   UNL     1      -2.009  33.408  49.087  1.00  0.00     0.057 A 
ATOM     14  C   UNL     1      -3.222  33.967  49.377  1.00  0.00    -0.085 A 
ATOM     15  C   UNL     1      -1.594  32.978  47.722  1.00  0.00     0.341 A 
ATOM     16  C   UNL     1      -4.121  34.138  48.186  1.00  0.00     0.010 A 
ATOM     17  O   UNL     1      -2.469  33.188  46.675  1.00  0.00    -0.423 OA
ATOM     18  O   UNL     1      -0.505  32.448  47.498  1.00  0.00    -0.246 OA
ATOM     19  C   UNL     1      -5.409  34.695  48.300  1.00  0.00     0.011 A 
ATOM     20  C   UNL     1      -3.721  33.756  46.912  1.00  0.00     0.137 A 
ATOM     21  C   UNL     1      -6.246  34.858  47.189  1.00  0.00     0.001 A 
ATOM     22  C   UNL     1      -4.542  33.911  45.787  1.00  0.00     0.048 A 
ATOM     23  C   UNL     1      -5.810  34.465  45.928  1.00  0.00     0.004 A 
ATOM     24  O   UNL     1      -3.624  34.345  50.523  1.00  0.00    -0.872 OA
ENDBRANCH   7  13
ENDBRANCH   1   7
BRANCH   3  25
ATOM     25  N   UNL     1      -0.757  35.303  54.632  1.00  0.00     0.062 N 
ATOM     26  O   UNL     1      -0.969  34.185  55.130  1.00  0.00    -0.258 OA
ATOM     27  O   UNL     1      -0.731  36.358  55.283  1.00  0.00    -0.258 OA
ENDBRANCH   3  25
TORSDOF 4
ENDMDL
MODEL 2
REMARK VINA RESULT:    -5.563      2.345      6.226
REMARK INTER + INTRA:          -7.874
REMARK INTER:                  -6.761
REMARK INTRA:                  -1.113
REMARK UNBOUND:                -1.010
REMARK SMILES CC(=O)N[C@H](c1cccc([N+](=O)[O-])c1)c1c([O-])c2ccccc2oc1=O
REMARK SMILES IDX 6 1 14 2 10 3 9 4 8 5 7 6 5 7 4 8 2 9 3 10 1 11 15 13 16 14
REMARK SMILES IDX 25 15 18 16 24 17 26 18 19 19 23 20 20 21 22 22 21 23 17 24
REMARK SMILES IDX 11 25 12 26 13 27
REMARK H PARENT 4 12
ROOT
ATOM      1  C   UNL     1      -3.518  35.680  49.110  1.00  0.00    -0.014 A 
ATOM      2  C   UNL     1      -3.817  34.601  48.262  1.00  0.00     0.091 A 
ATOM      3  C   UNL     1      -4.895  34.691  47.372  1.00  0.00     0.269 A 
ATOM      4  C   UNL     1      -5.683  35.849  47.314  1.00  0.00     0.085 A 
ATOM      5  C   UNL     1      -5.386  36.923  48.152  1.00  0.00     0.007 A 
ATOM      6  C   UNL     1      -4.312  36.840  49.039  1.00  0.00     0.007 A 
ENDROOT
BRANCH   1   7
ATOM      7  C   UNL     1      -2.337  35.594  50.079  1.00  0.00     0.150 C 
BRANCH   7   8
ATOM      8  N   UNL     1      -2.734  36.113  51.376  1.00  0.00    -0.345 N 
ATOM      9  C   UNL     1      -1.883  36.461  52.379  1.00  0.00     0.217 C 
ATOM     10  O   UNL     1      -0.659  36.375  52.320  1.00  0.00    -0.275 OA
ATOM     11  C   UNL     1      -2.589  36.943  53.618  1.00  0.00     0.114 C 
ATOM     12  H   UNL     1      -3.754  36.160  51.489  1.00  0.00     0.164 HD
ENDBRANCH   7   8
BRANCH   7  13
ATOM     13  C   UNL     1      -1.780  34.165  50.203  1.00  0.00     0.057 A 
ATOM     14  C   UNL     1      -2.346  33.155  50.931  1.00  0.00    -0.085 A 
ATOM     15  C   UNL     1      -0.517  34.026  49.426  1.00  0.00     0.341 A 
ATOM     16  C   UNL     1      -1.590  31.859  50.874  1.00  0.00     0.010 A 
ATOM     17  O   UNL     1       0.109  32.796  49.407  1.00  0.00    -0.423 OA
ATOM     18  O   UNL     1      -0.015  34.964  48.805  1.00  0.00    -0.246 OA
ATOM     19  C   UNL     1      -2.026  30.713  51.567  1.00  0.00     0.011 A 
ATOM     20  C   UNL     1      -0.423  31.728  50.131  1.00  0.00     0.137 A 
ATOM     21  C   UNL     1      -1.322  29.503  51.511  1.00  0.00     0.001 A 
ATOM     22  C   UNL     1       0.294  30.527  50.061  1.00  0.00     0.048 A 
ATOM     23  C   UNL     1      -0.159  29.410  50.755  1.00  0.00     0.004 A 
ATOM     24  O   UNL     1      -3.417  33.225  51.612  1.00  0.00    -0.872 OA
ENDBRANCH   7  13
ENDBRANCH   1   7
BRANCH   3  25
ATOM     25  N   UNL     1      -5.207  33.564  46.486  1.00  0.00     0.062 N 
ATOM     26  O   UNL     1      -4.458  32.573  46.527  1.00  0.00    -0.258 OA
ATOM     27  O   UNL     1      -6.194  33.656  45.741  1.00  0.00    -0.258 OA
ENDBRANCH   3  25
TORSDOF 4
ENDMDL
MODEL 3
REMARK VINA RESULT:    -3.647      1.999      2.310
REMARK INTER + INTRA:          -5.510
REMARK INTER:                  -6.669
REMARK INTRA:                   1.159
REMARK UNBOUND:                -1.010
REMARK SMILES CC(=O)N[C@H](c1cccc([N+](=O)[O-])c1)c1c([O-])c2ccccc2oc1=O
REMARK SMILES IDX 6 1 14 2 10 3 9 4 8 5 7 6 5 7 4 8 2 9 3 10 1 11 15 13 16 14
REMARK SMILES IDX 25 15 18 16 24 17 26 18 19 19 23 20 20 21 22 22 21 23 17 24
REMARK SMILES IDX 11 25 12 26 13 27
REMARK H PARENT 4 12
ROOT
ATOM      1  C   UNL     1      -0.539  33.448  51.529  1.00  0.00    -0.014 A 
ATOM      2  C   UNL     1      -1.660  34.276  51.700  1.00  0.00     0.091 A 
ATOM      3  C   UNL     1      -1.936  34.827  52.958  1.00  0.00     0.269 A 
ATOM      4  C   UNL     1      -1.102  34.565  54.054  1.00  0.00     0.085 A 
ATOM      5  C   UNL     1       0.014  33.746  53.887  1.00  0.00     0.007 A 
ATOM      6  C   UNL     1       0.294  33.196  52.636  1.00  0.00     0.007 A 
ENDROOT
BRANCH   1   7
ATOM      7  C   UNL     1      -0.225  32.849  50.156  1.00  0.00     0.150 C 
BRANCH   7   8
ATOM      8  N   UNL     1      -0.139  31.403  50.266  1.00  0.00    -0.345 N 
ATOM      9  C   UNL     1      -0.834  30.637  51.149  1.00  0.00     0.217 C 
ATOM     10  O   UNL     1      -1.626  31.072  51.981  1.00  0.00    -0.275 OA
ATOM     11  C   UNL     1      -0.516  29.170  51.044  1.00  0.00     0.114 C 
ATOM     12  H   UNL     1       0.548  30.997  49.618  1.00  0.00     0.164 HD
ENDBRANCH   7   8
BRANCH   7  13
ATOM     13  C   UNL     1      -1.251  33.262  49.086  1.00  0.00     0.057 A 
ATOM     14  C   UNL     1      -2.378  32.561  48.758  1.00  0.00    -0.085 A 
ATOM     15  C   UNL     1      -0.841  34.536  48.433  1.00  0.00     0.341 A 
ATOM     16  C   UNL     1      -3.203  33.196  47.676  1.00  0.00     0.010 A 
ATOM     17  O   UNL     1      -1.664  35.067  47.460  1.00  0.00    -0.423 OA
ATOM     18  O   UNL     1       0.197  35.128  48.729  1.00  0.00    -0.246 OA
ATOM     19  C   UNL     1      -4.395  32.611  47.210  1.00  0.00     0.011 A 
ATOM     20  C   UNL     1      -2.829  34.396  47.084  1.00  0.00     0.137 A 
ATOM     21  C   UNL     1      -5.167  33.205  46.202  1.00  0.00     0.001 A 
ATOM     22  C   UNL     1      -3.586  35.007  46.077  1.00  0.00     0.048 A 
ATOM     23  C   UNL     1      -4.760  34.408  45.635  1.00  0.00     0.004 A 
ATOM     24  O   UNL     1      -2.767  31.470  49.282  1.00  0.00    -0.872 OA
ENDBRANCH   7  13
ENDBRANCH   1   7
BRANCH   3  25
ATOM     25  N   UNL     1      -3.107  35.692  53.136  1.00  0.00     0.062 N 
ATOM     26  O   UNL     1      -2.990  36.676  53.885  1.00  0.00    -0.258 OA
ATOM     27  O   UNL     1      -4.152  35.399  52.536  1.00  0.00    -0.258 OA
ENDBRANCH   3  25
TORSDOF 4
ENDMDL
MODEL 4
REMARK VINA RESULT:    -3.546      2.294      6.403
REMARK INTER + INTRA:          -5.385
REMARK INTER:                  -4.645
REMARK INTRA:                  -0.740
REMARK UNBOUND:                -1.010
REMARK SMILES CC(=O)N[C@H](c1cccc([N+](=O)[O-])c1)c1c([O-])c2ccccc2oc1=O
REMARK SMILES IDX 6 1 14 2 10 3 9 4 8 5 7 6 5 7 4 8 2 9 3 10 1 11 15 13 16 14
REMARK SMILES IDX 25 15 18 16 24 17 26 18 19 19 23 20 20 21 22 22 21 23 17 24
REMARK SMILES IDX 11 25 12 26 13 27
REMARK H PARENT 4 12
ROOT
ATOM      1  C   UNL     1      -3.163  35.602  49.655  1.00  0.00    -0.014 A 
ATOM      2  C   UNL     1      -3.288  34.983  48.401  1.00  0.00     0.091 A 
ATOM      3  C   UNL     1      -4.396  35.266  47.591  1.00  0.00     0.269 A 
ATOM      4  C   UNL     1      -5.385  36.164  48.016  1.00  0.00     0.085 A 
ATOM      5  C   UNL     1      -5.261  36.783  49.259  1.00  0.00     0.007 A 
ATOM      6  C   UNL     1      -4.159  36.507  50.068  1.00  0.00     0.007 A 
ENDROOT
BRANCH   1   7
ATOM      7  C   UNL     1      -1.952  35.307  50.542  1.00  0.00     0.150 C 
BRANCH   7   8
ATOM      8  N   UNL     1      -2.128  35.945  51.834  1.00  0.00    -0.345 N 
ATOM      9  C   UNL     1      -1.124  36.331  52.667  1.00  0.00     0.217 C 
ATOM     10  O   UNL     1       0.073  36.182  52.435  1.00  0.00    -0.275 OA
ATOM     11  C   UNL     1      -1.616  36.942  53.950  1.00  0.00     0.114 C 
ATOM     12  H   UNL     1      -3.118  36.050  52.093  1.00  0.00     0.164 HD
ENDBRANCH   7   8
BRANCH   7  13
ATOM     13  C   UNL     1      -1.693  33.799  50.702  1.00  0.00     0.057 A 
ATOM     14  C   UNL     1      -0.701  33.095  50.079  1.00  0.00    -0.085 A 
ATOM     15  C   UNL     1      -2.691  33.192  51.626  1.00  0.00     0.341 A 
ATOM     16  C   UNL     1      -0.678  31.633  50.417  1.00  0.00     0.010 A 
ATOM     17  O   UNL     1      -2.592  31.843  51.903  1.00  0.00    -0.423 OA
ATOM     18  O   UNL     1      -3.594  33.847  52.148  1.00  0.00    -0.246 OA
ATOM     19  C   UNL     1       0.275  30.756  49.864  1.00  0.00     0.011 A 
ATOM     20  C   UNL     1      -1.597  31.074  51.297  1.00  0.00     0.137 A 
ATOM     21  C   UNL     1       0.298  29.391  50.183  1.00  0.00     0.001 A 
ATOM     22  C   UNL     1      -1.591  29.714  51.630  1.00  0.00     0.048 A 
ATOM     23  C   UNL     1      -0.638  28.870  51.069  1.00  0.00     0.004 A 
ATOM     24  O   UNL     1       0.170  33.565  49.280  1.00  0.00    -0.872 OA
ENDBRANCH   7  13
ENDBRANCH   1   7
BRANCH   3  25
ATOM     25  N   UNL     1      -4.528  34.618  46.281  1.00  0.00     0.062 N 
ATOM     26  O   UNL     1      -3.538  34.014  45.834  1.00  0.00    -0.258 OA
ATOM     27  O   UNL     1      -5.612  34.708  45.686  1.00  0.00    -0.258 OA
ENDBRANCH   3  25
TORSDOF 4
ENDMDL
MODEL 5
REMARK VINA RESULT:    -3.119      2.197      6.363
REMARK INTER + INTRA:          -4.858
REMARK INTER:                  -3.905
REMARK INTRA:                  -0.952
REMARK UNBOUND:                -1.010
REMARK SMILES CC(=O)N[C@H](c1cccc([N+](=O)[O-])c1)c1c([O-])c2ccccc2oc1=O
REMARK SMILES IDX 6 1 14 2 10 3 9 4 8 5 7 6 5 7 4 8 2 9 3 10 1 11 15 13 16 14
REMARK SMILES IDX 25 15 18 16 24 17 26 18 19 19 23 20 20 21 22 22 21 23 17 24
REMARK SMILES IDX 11 25 12 26 13 27
REMARK H PARENT 4 12
ROOT
ATOM      1  C   UNL     1      -1.037  33.249  49.541  1.00  0.00    -0.014 A 
ATOM      2  C   UNL     1      -1.156  32.181  50.446  1.00  0.00     0.091 A 
ATOM      3  C   UNL     1      -0.567  30.945  50.147  1.00  0.00     0.269 A 
ATOM      4  C   UNL     1       0.145  30.759  48.953  1.00  0.00     0.085 A 
ATOM      5  C   UNL     1       0.267  31.818  48.056  1.00  0.00     0.007 A 
ATOM      6  C   UNL     1      -0.315  33.051  48.349  1.00  0.00     0.007 A 
ENDROOT
BRANCH   1   7
ATOM      7  C   UNL     1      -1.669  34.604  49.863  1.00  0.00     0.150 C 
BRANCH   7   8
ATOM      8  N   UNL     1      -3.111  34.514  49.717  1.00  0.00    -0.345 N 
ATOM      9  C   UNL     1      -3.806  34.775  48.577  1.00  0.00     0.217 C 
ATOM     10  O   UNL     1      -3.300  35.130  47.515  1.00  0.00    -0.275 OA
ATOM     11  C   UNL     1      -5.294  34.622  48.738  1.00  0.00     0.114 C 
ATOM     12  H   UNL     1      -3.584  34.264  50.595  1.00  0.00     0.164 HD
ENDBRANCH   7   8
BRANCH   7  13
ATOM     13  C   UNL     1      -1.286  35.114  51.263  1.00  0.00     0.057 A 
ATOM     14  C   UNL     1      -1.870  34.723  52.435  1.00  0.00    -0.085 A 
ATOM     15  C   UNL     1      -0.189  36.118  51.172  1.00  0.00     0.341 A 
ATOM     16  C   UNL     1      -1.298  35.383  53.657  1.00  0.00     0.010 A 
ATOM     17  O   UNL     1       0.297  36.665  52.343  1.00  0.00    -0.423 OA
ATOM     18  O   UNL     1       0.296  36.473  50.097  1.00  0.00    -0.246 OA
ATOM     19  C   UNL     1      -1.781  35.101  54.949  1.00  0.00     0.011 A 
ATOM     20  C   UNL     1      -0.260  36.302  53.570  1.00  0.00     0.137 A 
ATOM     21  C   UNL     1      -1.245  35.714  56.089  1.00  0.00     0.001 A 
ATOM     22  C   UNL     1       0.291  36.925  54.697  1.00  0.00     0.048 A 
ATOM     23  C   UNL     1      -0.205  36.628  55.962  1.00  0.00     0.004 A 
ATOM     24  O   UNL     1      -2.810  33.876  52.564  1.00  0.00    -0.872 OA
ENDBRANCH   7  13
ENDBRANCH   1   7
BRANCH   3  25
ATOM     25  N   UNL     1      -0.691  29.829  51.092  1.00  0.00     0.062 N 
ATOM     26  O   UNL     1      -1.237  30.057  52.185  1.00  0.00    -0.258 OA
ATOM     27  O   UNL     1      -0.244  28.722  50.758  1.00  0.00    -0.258 OA
ENDBRANCH   3  25
TORSDOF 4
ENDMDL
