MODEL 1
REMARK VINA RESULT:   -11.101      0.000      0.000
REMARK INTER + INTRA:         -14.856
REMARK INTER:                 -13.696
REMARK INTRA:                  -1.159
REMARK UNBOUND:                -1.159
REMARK SMILES CC(=O)N[C@H](c1cccc([N+](=O)[O-])c1)c1c([O-])c2ccccc2oc1=O
REMARK SMILES IDX 6 1 14 2 10 3 9 4 8 5 7 6 5 7 4 8 2 9 3 10 1 11 15 13 16 14
REMARK SMILES IDX 25 15 18 16 24 17 26 18 19 19 23 20 20 21 22 22 21 23 17 24
REMARK SMILES IDX 11 25 12 26 13 27
REMARK H PARENT 4 12
ROOT
ATOM      1  C   UNL     1      -9.196  25.988  56.992  1.00  0.00    -0.014 A 
ATOM      2  C   UNL     1      -9.496  26.864  55.935  1.00  0.00     0.091 A 
ATOM      3  C   UNL     1     -10.785  26.879  55.386  1.00  0.00     0.269 A 
ATOM      4  C   UNL     1     -11.785  26.029  55.880  1.00  0.00     0.085 A 
ATOM      5  C   UNL     1     -11.492  25.162  56.931  1.00  0.00     0.007 A 
ATOM      6  C   UNL     1     -10.211  25.144  57.483  1.00  0.00     0.007 A 
ENDROOT
BRANCH   1   7
ATOM      7  C   UNL     1      -7.794  25.971  57.604  1.00  0.00     0.150 C 
BRANCH   7   8
ATOM      8  N   UNL     1      -7.893  25.777  59.040  1.00  0.00    -0.345 N 
ATOM      9  C   UNL     1      -7.967  26.770  59.966  1.00  0.00     0.217 C 
ATOM     10  O   UNL     1      -7.953  27.971  59.708  1.00  0.00    -0.275 OA
ATOM     11  C   UNL     1      -8.035  26.261  61.380  1.00  0.00     0.114 C 
ATOM     12  H   UNL     1      -7.863  24.785  59.308  1.00  0.00     0.164 HD
ENDBRANCH   7   8
BRANCH   7  13
ATOM     13  C   UNL     1      -6.885  24.908  56.963  1.00  0.00     0.057 A 
ATOM     14  C   UNL     1      -6.787  23.605  57.365  1.00  0.00    -0.085 A 
ATOM     15  C   UNL     1      -6.102  25.496  55.841  1.00  0.00     0.341 A 
ATOM     16  C   UNL     1      -5.820  22.785  56.560  1.00  0.00     0.010 A 
ATOM     17  O   UNL     1      -5.248  24.672  55.136  1.00  0.00    -0.423 OA
ATOM     18  O   UNL     1      -6.190  26.683  55.523  1.00  0.00    -0.246 OA
ATOM     19  C   UNL     1      -5.590  21.424  56.835  1.00  0.00     0.011 A 
ATOM     20  C   UNL     1      -5.108  23.332  55.500  1.00  0.00     0.137 A 
ATOM     21  C   UNL     1      -4.691  20.658  56.082  1.00  0.00     0.001 A 
ATOM     22  C   UNL     1      -4.205  22.584  54.733  1.00  0.00     0.048 A 
ATOM     23  C   UNL     1      -3.997  21.241  55.026  1.00  0.00     0.004 A 
ATOM     24  O   UNL     1      -7.429  23.058  58.317  1.00  0.00    -0.872 OA
ENDBRANCH   7  13
ENDBRANCH   1   7
BRANCH   3  25
ATOM     25  N   UNL     1     -11.098  27.793  54.282  1.00  0.00     0.062 N 
ATOM     26  O   UNL     1     -11.950  27.429  53.455  1.00  0.00    -0.258 OA
ATOM     27  O   UNL     1     -10.498  28.877  54.228  1.00  0.00    -0.258 OA
ENDBRANCH   3  25
TORSDOF 4
ENDMDL
MODEL 2
REMARK VINA RESULT:   -11.081      1.878      2.381
REMARK INTER + INTRA:         -14.831
REMARK INTER:                 -13.732
REMARK INTRA:                  -1.099
REMARK UNBOUND:                -1.159
REMARK SMILES CC(=O)N[C@H](c1cccc([N+](=O)[O-])c1)c1c([O-])c2ccccc2oc1=O
REMARK SMILES IDX 6 1 14 2 10 3 9 4 8 5 7 6 5 7 4 8 2 9 3 10 1 11 15 13 16 14
REMARK SMILES IDX 25 15 18 16 24 17 26 18 19 19 23 20 20 21 22 22 21 23 17 24
REMARK SMILES IDX 11 25 12 26 13 27
REMARK H PARENT 4 12
ROOT
ATOM      1  C   UNL     1      -9.208  25.817  57.178  1.00  0.00    -0.014 A 
ATOM      2  C   UNL     1     -10.097  24.985  57.878  1.00  0.00     0.091 A 
ATOM      3  C   UNL     1     -11.428  24.872  57.454  1.00  0.00     0.269 A 
ATOM      4  C   UNL     1     -11.886  25.580  56.334  1.00  0.00     0.085 A 
ATOM      5  C   UNL     1     -11.005  26.404  55.635  1.00  0.00     0.007 A 
ATOM      6  C   UNL     1      -9.679  26.518  56.052  1.00  0.00     0.007 A 
ENDROOT
BRANCH   1   7
ATOM      7  C   UNL     1      -7.751  25.939  57.629  1.00  0.00     0.150 C 
BRANCH   7   8
ATOM      8  N   UNL     1      -7.682  25.849  59.077  1.00  0.00    -0.345 N 
ATOM      9  C   UNL     1      -8.038  26.833  59.946  1.00  0.00     0.217 C 
ATOM     10  O   UNL     1      -8.463  27.937  59.617  1.00  0.00    -0.275 OA
ATOM     11  C   UNL     1      -7.831  26.457  61.388  1.00  0.00     0.114 C 
ATOM     12  H   UNL     1      -7.288  24.956  59.400  1.00  0.00     0.164 HD
ENDBRANCH   7   8
BRANCH   7  13
ATOM     13  C   UNL     1      -6.840  24.892  56.966  1.00  0.00     0.057 A 
ATOM     14  C   UNL     1      -6.683  23.601  57.385  1.00  0.00    -0.085 A 
ATOM     15  C   UNL     1      -6.128  25.483  55.798  1.00  0.00     0.341 A 
ATOM     16  C   UNL     1      -5.730  22.795  56.550  1.00  0.00     0.010 A 
ATOM     17  O   UNL     1      -5.283  24.671  55.068  1.00  0.00    -0.423 OA
ATOM     18  O   UNL     1      -6.268  26.660  55.464  1.00  0.00    -0.246 OA
ATOM     19  C   UNL     1      -5.445  21.447  56.837  1.00  0.00     0.011 A 
ATOM     20  C   UNL     1      -5.084  23.343  55.448  1.00  0.00     0.137 A 
ATOM     21  C   UNL     1      -4.558  20.694  56.056  1.00  0.00     0.001 A 
ATOM     22  C   UNL     1      -4.195  22.609  54.653  1.00  0.00     0.048 A 
ATOM     23  C   UNL     1      -3.933  21.278  54.960  1.00  0.00     0.004 A 
ATOM     24  O   UNL     1      -7.263  23.053  58.375  1.00  0.00    -0.872 OA
ENDBRANCH   7  13
ENDBRANCH   1   7
BRANCH   3  25
ATOM     25  N   UNL     1     -12.357  24.003  58.186  1.00  0.00     0.062 N 
ATOM     26  O   UNL     1     -13.573  24.211  58.045  1.00  0.00    -0.258 OA
ATOM     27  O   UNL     1     -11.884  23.111  58.905  1.00  0.00    -0.258 OA
ENDBRANCH   3  25
TORSDOF 4
ENDMDL
MODEL 3
REMARK VINA RESULT:   -10.850      2.213      6.502
REMARK INTER + INTRA:         -14.547
REMARK INTER:                 -14.237
REMARK INTRA:                  -0.310
REMARK UNBOUND:                -1.159
REMARK SMILES CC(=O)N[C@H](c1cccc([N+](=O)[O-])c1)c1c([O-])c2ccccc2oc1=O
REMARK SMILES IDX 6 1 14 2 10 3 9 4 8 5 7 6 5 7 4 8 2 9 3 10 1 11 15 13 16 14
REMARK SMILES IDX 25 15 18 16 24 17 26 18 19 19 23 20 20 21 22 22 21 23 17 24
REMARK SMILES IDX 11 25 12 26 13 27
REMARK H PARENT 4 12
ROOT
ATOM      1  C   UNL     1      -8.314  24.778  57.072  1.00  0.00    -0.014 A 
ATOM      2  C   UNL     1      -7.260  24.504  57.958  1.00  0.00     0.091 A 
ATOM      3  C   UNL     1      -6.181  23.715  57.538  1.00  0.00     0.269 A 
ATOM      4  C   UNL     1      -6.138  23.194  56.237  1.00  0.00     0.085 A 
ATOM      5  C   UNL     1      -7.181  23.468  55.353  1.00  0.00     0.007 A 
ATOM      6  C   UNL     1      -8.256  24.255  55.766  1.00  0.00     0.007 A 
ENDROOT
BRANCH   1   7
ATOM      7  C   UNL     1      -9.491  25.646  57.520  1.00  0.00     0.150 C 
BRANCH   7   8
ATOM      8  N   UNL     1      -9.047  26.575  58.544  1.00  0.00    -0.345 N 
ATOM      9  C   UNL     1      -9.108  26.357  59.885  1.00  0.00     0.217 C 
ATOM     10  O   UNL     1      -9.556  25.341  60.410  1.00  0.00    -0.275 OA
ATOM     11  C   UNL     1      -8.597  27.514  60.701  1.00  0.00     0.114 C 
ATOM     12  H   UNL     1      -8.705  27.462  58.154  1.00  0.00     0.164 HD
ENDBRANCH   7   8
BRANCH   7  13
ATOM     13  C   UNL     1     -10.153  26.391  56.348  1.00  0.00     0.057 A 
ATOM     14  C   UNL     1     -11.356  26.070  55.784  1.00  0.00    -0.085 A 
ATOM     15  C   UNL     1      -9.291  27.517  55.889  1.00  0.00     0.341 A 
ATOM     16  C   UNL     1     -11.764  26.968  54.652  1.00  0.00     0.010 A 
ATOM     17  O   UNL     1      -9.746  28.310  54.855  1.00  0.00    -0.423 OA
ATOM     18  O   UNL     1      -8.197  27.762  56.398  1.00  0.00    -0.246 OA
ATOM     19  C   UNL     1     -12.972  26.782  53.953  1.00  0.00     0.011 A 
ATOM     20  C   UNL     1     -10.968  28.030  54.242  1.00  0.00     0.137 A 
ATOM     21  C   UNL     1     -13.354  27.623  52.899  1.00  0.00     0.001 A 
ATOM     22  C   UNL     1     -11.332  28.883  53.192  1.00  0.00     0.048 A 
ATOM     23  C   UNL     1     -12.531  28.677  52.519  1.00  0.00     0.004 A 
ATOM     24  O   UNL     1     -12.124  25.119  56.135  1.00  0.00    -0.872 OA
ENDBRANCH   7  13
ENDBRANCH   1   7
BRANCH   3  25
ATOM     25  N   UNL     1      -5.080  23.429  58.464  1.00  0.00     0.062 N 
ATOM     26  O   UNL     1      -3.956  23.219  57.978  1.00  0.00    -0.258 OA
ATOM     27  O   UNL     1      -5.324  23.407  59.679  1.00  0.00    -0.258 OA
ENDBRANCH   3  25
TORSDOF 4
ENDMDL
MODEL 4
REMARK VINA RESULT:   -10.826      2.268      6.321
REMARK INTER + INTRA:         -14.517
REMARK INTER:                 -13.917
REMARK INTRA:                  -0.600
REMARK UNBOUND:                -1.159
REMARK SMILES CC(=O)N[C@H](c1cccc([N+](=O)[O-])c1)c1c([O-])c2ccccc2oc1=O
REMARK SMILES IDX 6 1 14 2 10 3 9 4 8 5 7 6 5 7 4 8 2 9 3 10 1 11 15 13 16 14
REMARK SMILES IDX 25 15 18 16 24 17 26 18 19 19 23 20 20 21 22 22 21 23 17 24
REMARK SMILES IDX 11 25 12 26 13 27
REMARK H PARENT 4 12
ROOT
ATOM      1  C   UNL     1      -8.471  24.791  57.211  1.00  0.00    -0.014 A 
ATOM      2  C   UNL     1      -7.654  25.317  56.197  1.00  0.00     0.091 A 
ATOM      3  C   UNL     1      -6.532  24.600  55.763  1.00  0.00     0.269 A 
ATOM      4  C   UNL     1      -6.212  23.357  56.327  1.00  0.00     0.085 A 
ATOM      5  C   UNL     1      -7.023  22.830  57.331  1.00  0.00     0.007 A 
ATOM      6  C   UNL     1      -8.143  23.539  57.766  1.00  0.00     0.007 A 
ENDROOT
BRANCH   1   7
ATOM      7  C   UNL     1      -9.704  25.563  57.685  1.00  0.00     0.150 C 
BRANCH   7   8
ATOM      8  N   UNL     1      -9.293  26.632  58.579  1.00  0.00    -0.345 N 
ATOM      9  C   UNL     1      -8.986  26.484  59.896  1.00  0.00     0.217 C 
ATOM     10  O   UNL     1      -9.023  25.419  60.508  1.00  0.00    -0.275 OA
ATOM     11  C   UNL     1      -8.620  27.778  60.571  1.00  0.00     0.114 C 
ATOM     12  H   UNL     1      -9.292  27.553  58.122  1.00  0.00     0.164 HD
ENDBRANCH   7   8
BRANCH   7  13
ATOM     13  C   UNL     1     -10.541  26.111  56.517  1.00  0.00     0.057 A 
ATOM     14  C   UNL     1     -10.205  27.182  55.736  1.00  0.00    -0.085 A 
ATOM     15  C   UNL     1     -11.792  25.319  56.353  1.00  0.00     0.341 A 
ATOM     16  C   UNL     1     -11.207  27.499  54.664  1.00  0.00     0.010 A 
ATOM     17  O   UNL     1     -12.654  25.661  55.329  1.00  0.00    -0.423 OA
ATOM     18  O   UNL     1     -12.082  24.378  57.092  1.00  0.00    -0.246 OA
ATOM     19  C   UNL     1     -11.025  28.571  53.770  1.00  0.00     0.011 A 
ATOM     20  C   UNL     1     -12.362  26.745  54.500  1.00  0.00     0.137 A 
ATOM     21  C   UNL     1     -11.958  28.865  52.767  1.00  0.00     0.001 A 
ATOM     22  C   UNL     1     -13.307  27.021  53.504  1.00  0.00     0.048 A 
ATOM     23  C   UNL     1     -13.102  28.086  52.633  1.00  0.00     0.004 A 
ATOM     24  O   UNL     1      -9.154  27.890  55.839  1.00  0.00    -0.872 OA
ENDBRANCH   7  13
ENDBRANCH   1   7
BRANCH   3  25
ATOM     25  N   UNL     1      -5.678  25.150  54.703  1.00  0.00     0.062 N 
ATOM     26  O   UNL     1      -4.993  26.150  54.976  1.00  0.00    -0.258 OA
ATOM     27  O   UNL     1      -5.685  24.596  53.595  1.00  0.00    -0.258 OA
ENDBRANCH   3  25
TORSDOF 4
ENDMDL
MODEL 5
REMARK VINA RESULT:   -10.740      2.324      6.738
REMARK INTER + INTRA:         -14.411
REMARK INTER:                 -13.523
REMARK INTRA:                  -0.888
REMARK UNBOUND:                -1.159
REMARK SMILES CC(=O)N[C@H](c1cccc([N+](=O)[O-])c1)c1c([O-])c2ccccc2oc1=O
REMARK SMILES IDX 6 1 14 2 10 3 9 4 8 5 7 6 5 7 4 8 2 9 3 10 1 11 15 13 16 14
REMARK SMILES IDX 25 15 18 16 24 17 26 18 19 19 23 20 20 21 22 22 21 23 17 24
REMARK SMILES IDX 11 25 12 26 13 27
REMARK H PARENT 4 12
ROOT
ATOM      1  C   UNL     1      -8.408  24.763  57.157  1.00  0.00    -0.014 A 
ATOM      2  C   UNL     1      -7.357  24.455  58.038  1.00  0.00     0.091 A 
ATOM      3  C   UNL     1      -6.256  23.720  57.580  1.00  0.00     0.269 A 
ATOM      4  C   UNL     1      -6.185  23.288  56.248  1.00  0.00     0.085 A 
ATOM      5  C   UNL     1      -7.224  23.596  55.371  1.00  0.00     0.007 A 
ATOM      6  C   UNL     1      -8.323  24.329  55.821  1.00  0.00     0.007 A 
ENDROOT
BRANCH   1   7
ATOM      7  C   UNL     1      -9.610  25.573  57.647  1.00  0.00     0.150 C 
BRANCH   7   8
ATOM      8  N   UNL     1      -9.155  26.636  58.525  1.00  0.00    -0.345 N 
ATOM      9  C   UNL     1      -9.115  26.573  59.884  1.00  0.00     0.217 C 
ATOM     10  O   UNL     1      -9.469  25.604  60.550  1.00  0.00    -0.275 OA
ATOM     11  C   UNL     1      -8.621  27.841  60.524  1.00  0.00     0.114 C 
ATOM     12  H   UNL     1      -8.890  27.487  58.014  1.00  0.00     0.164 HD
ENDBRANCH   7   8
BRANCH   7  13
ATOM     13  C   UNL     1     -10.452  26.135  56.489  1.00  0.00     0.057 A 
ATOM     14  C   UNL     1     -10.107  27.201  55.705  1.00  0.00    -0.085 A 
ATOM     15  C   UNL     1     -11.718  25.365  56.339  1.00  0.00     0.341 A 
ATOM     16  C   UNL     1     -11.116  27.536  54.645  1.00  0.00     0.010 A 
ATOM     17  O   UNL     1     -12.586  25.722  55.327  1.00  0.00    -0.423 OA
ATOM     18  O   UNL     1     -12.014  24.429  57.082  1.00  0.00    -0.246 OA
ATOM     19  C   UNL     1     -10.927  28.606  53.749  1.00  0.00     0.011 A 
ATOM     20  C   UNL     1     -12.286  26.802  54.495  1.00  0.00     0.137 A 
ATOM     21  C   UNL     1     -11.867  28.916  52.758  1.00  0.00     0.001 A 
ATOM     22  C   UNL     1     -13.238  27.094  53.510  1.00  0.00     0.048 A 
ATOM     23  C   UNL     1     -13.026  28.156  52.637  1.00  0.00     0.004 A 
ATOM     24  O   UNL     1      -9.043  27.892  55.795  1.00  0.00    -0.872 OA
ENDBRANCH   7  13
ENDBRANCH   1   7
BRANCH   3  25
ATOM     25  N   UNL     1      -5.159  23.398  58.499  1.00  0.00     0.062 N 
ATOM     26  O   UNL     1      -4.050  23.136  58.005  1.00  0.00    -0.258 OA
ATOM     27  O   UNL     1      -5.392  23.401  59.717  1.00  0.00    -0.258 OA
ENDBRANCH   3  25
TORSDOF 4
ENDMDL
MODEL 6
REMARK VINA RESULT:   -10.299      2.163      6.023
REMARK INTER + INTRA:         -13.867
REMARK INTER:                 -14.163
REMARK INTRA:                   0.297
REMARK UNBOUND:                -1.159
REMARK SMILES CC(=O)N[C@H](c1cccc([N+](=O)[O-])c1)c1c([O-])c2ccccc2oc1=O
REMARK SMILES IDX 6 1 14 2 10 3 9 4 8 5 7 6 5 7 4 8 2 9 3 10 1 11 15 13 16 14
REMARK SMILES IDX 25 15 18 16 24 17 26 18 19 19 23 20 20 21 22 22 21 23 17 24
REMARK SMILES IDX 11 25 12 26 13 27
REMARK H PARENT 4 12
ROOT
ATOM      1  C   UNL     1      -8.207  24.746  57.099  1.00  0.00    -0.014 A 
ATOM      2  C   UNL     1      -7.475  25.074  55.946  1.00  0.00     0.091 A 
ATOM      3  C   UNL     1      -6.429  24.243  55.523  1.00  0.00     0.269 A 
ATOM      4  C   UNL     1      -6.103  23.082  56.236  1.00  0.00     0.085 A 
ATOM      5  C   UNL     1      -6.830  22.751  57.379  1.00  0.00     0.007 A 
ATOM      6  C   UNL     1      -7.873  23.573  57.804  1.00  0.00     0.007 A 
ENDROOT
BRANCH   1   7
ATOM      7  C   UNL     1      -9.356  25.642  57.563  1.00  0.00     0.150 C 
BRANCH   7   8
ATOM      8  N   UNL     1      -8.873  26.569  58.572  1.00  0.00    -0.345 N 
ATOM      9  C   UNL     1      -8.854  26.336  59.912  1.00  0.00     0.217 C 
ATOM     10  O   UNL     1      -9.253  25.305  60.449  1.00  0.00    -0.275 OA
ATOM     11  C   UNL     1      -8.320  27.494  60.710  1.00  0.00     0.114 C 
ATOM     12  H   UNL     1      -8.569  27.466  58.173  1.00  0.00     0.164 HD
ENDBRANCH   7   8
BRANCH   7  13
ATOM     13  C   UNL     1     -10.025  26.393  56.399  1.00  0.00     0.057 A 
ATOM     14  C   UNL     1     -11.200  26.036  55.797  1.00  0.00    -0.085 A 
ATOM     15  C   UNL     1      -9.204  27.568  55.994  1.00  0.00     0.341 A 
ATOM     16  C   UNL     1     -11.622  26.950  54.683  1.00  0.00     0.010 A 
ATOM     17  O   UNL     1      -9.671  28.372  54.973  1.00  0.00    -0.423 OA
ATOM     18  O   UNL     1      -8.133  27.845  56.535  1.00  0.00    -0.246 OA
ATOM     19  C   UNL     1     -12.805  26.733  53.951  1.00  0.00     0.011 A 
ATOM     20  C   UNL     1     -10.865  28.058  54.323  1.00  0.00     0.137 A 
ATOM     21  C   UNL     1     -13.201  27.587  52.914  1.00  0.00     0.001 A 
ATOM     22  C   UNL     1     -11.243  28.925  53.290  1.00  0.00     0.048 A 
ATOM     23  C   UNL     1     -12.417  28.688  52.584  1.00  0.00     0.004 A 
ATOM     24  O   UNL     1     -11.932  25.043  56.103  1.00  0.00    -0.872 OA
ENDBRANCH   7  13
ENDBRANCH   1   7
BRANCH   3  25
ATOM     25  N   UNL     1      -5.665  24.587  54.318  1.00  0.00     0.062 N 
ATOM     26  O   UNL     1      -4.736  23.830  53.989  1.00  0.00    -0.258 OA
ATOM     27  O   UNL     1      -5.979  25.611  53.695  1.00  0.00    -0.258 OA
ENDBRANCH   3  25
TORSDOF 4
ENDMDL
MODEL 7
REMARK VINA RESULT:   -10.288      0.690      1.976
REMARK INTER + INTRA:         -13.853
REMARK INTER:                 -13.498
REMARK INTRA:                  -0.355
REMARK UNBOUND:                -1.159
REMARK SMILES CC(=O)N[C@H](c1cccc([N+](=O)[O-])c1)c1c([O-])c2ccccc2oc1=O
REMARK SMILES IDX 6 1 14 2 10 3 9 4 8 5 7 6 5 7 4 8 2 9 3 10 1 11 15 13 16 14
REMARK SMILES IDX 25 15 18 16 24 17 26 18 19 19 23 20 20 21 22 22 21 23 17 24
REMARK SMILES IDX 11 25 12 26 13 27
REMARK H PARENT 4 12
ROOT
ATOM      1  C   UNL     1      -9.715  26.006  57.058  1.00  0.00    -0.014 A 
ATOM      2  C   UNL     1      -9.890  26.818  55.926  1.00  0.00     0.091 A 
ATOM      3  C   UNL     1     -11.127  26.841  55.267  1.00  0.00     0.269 A 
ATOM      4  C   UNL     1     -12.198  26.061  55.726  1.00  0.00     0.085 A 
ATOM      5  C   UNL     1     -12.029  25.257  56.852  1.00  0.00     0.007 A 
ATOM      6  C   UNL     1     -10.800  25.233  57.513  1.00  0.00     0.007 A 
ENDROOT
BRANCH   1   7
ATOM      7  C   UNL     1      -8.371  25.982  57.789  1.00  0.00     0.150 C 
BRANCH   7   8
ATOM      8  N   UNL     1      -8.598  25.882  59.220  1.00  0.00    -0.345 N 
ATOM      9  C   UNL     1      -8.389  26.878  60.122  1.00  0.00     0.217 C 
ATOM     10  O   UNL     1      -7.971  27.999  59.843  1.00  0.00    -0.275 OA
ATOM     11  C   UNL     1      -8.687  26.470  61.539  1.00  0.00     0.114 C 
ATOM     12  H   UNL     1      -8.906  24.945  59.508  1.00  0.00     0.164 HD
ENDBRANCH   7   8
BRANCH   7  13
ATOM     13  C   UNL     1      -7.453  24.852  57.294  1.00  0.00     0.057 A 
ATOM     14  C   UNL     1      -6.601  24.933  56.228  1.00  0.00    -0.085 A 
ATOM     15  C   UNL     1      -7.625  23.633  58.132  1.00  0.00     0.341 A 
ATOM     16  C   UNL     1      -5.820  23.678  55.968  1.00  0.00     0.010 A 
ATOM     17  O   UNL     1      -6.855  22.524  57.842  1.00  0.00    -0.423 OA
ATOM     18  O   UNL     1      -8.424  23.580  59.068  1.00  0.00    -0.246 OA
ATOM     19  C   UNL     1      -4.898  23.581  54.908  1.00  0.00     0.011 A 
ATOM     20  C   UNL     1      -5.968  22.549  56.765  1.00  0.00     0.137 A 
ATOM     21  C   UNL     1      -4.167  22.410  54.668  1.00  0.00     0.001 A 
ATOM     22  C   UNL     1      -5.246  21.370  56.543  1.00  0.00     0.048 A 
ATOM     23  C   UNL     1      -4.341  21.302  55.489  1.00  0.00     0.004 A 
ATOM     24  O   UNL     1      -6.422  25.947  55.481  1.00  0.00    -0.872 OA
ENDBRANCH   7  13
ENDBRANCH   1   7
BRANCH   3  25
ATOM     25  N   UNL     1     -11.309  27.690  54.084  1.00  0.00     0.062 N 
ATOM     26  O   UNL     1     -12.152  27.334  53.243  1.00  0.00    -0.258 OA
ATOM     27  O   UNL     1     -10.615  28.712  53.981  1.00  0.00    -0.258 OA
ENDBRANCH   3  25
TORSDOF 4
ENDMDL
MODEL 8
REMARK VINA RESULT:   -10.253      2.333      6.009
REMARK INTER + INTRA:         -13.810
REMARK INTER:                 -13.263
REMARK INTRA:                  -0.547
REMARK UNBOUND:                -1.159
REMARK SMILES CC(=O)N[C@H](c1cccc([N+](=O)[O-])c1)c1c([O-])c2ccccc2oc1=O
REMARK SMILES IDX 6 1 14 2 10 3 9 4 8 5 7 6 5 7 4 8 2 9 3 10 1 11 15 13 16 14
REMARK SMILES IDX 25 15 18 16 24 17 26 18 19 19 23 20 20 21 22 22 21 23 17 24
REMARK SMILES IDX 11 25 12 26 13 27
REMARK H PARENT 4 12
ROOT
ATOM      1  C   UNL     1      -6.655  24.123  58.028  1.00  0.00    -0.014 A 
ATOM      2  C   UNL     1      -6.457  24.274  56.646  1.00  0.00     0.091 A 
ATOM      3  C   UNL     1      -5.330  23.704  56.037  1.00  0.00     0.269 A 
ATOM      4  C   UNL     1      -4.395  22.982  56.791  1.00  0.00     0.085 A 
ATOM      5  C   UNL     1      -4.592  22.828  58.163  1.00  0.00     0.007 A 
ATOM      6  C   UNL     1      -5.713  23.391  58.774  1.00  0.00     0.007 A 
ENDROOT
BRANCH   1   7
ATOM      7  C   UNL     1      -7.887  24.734  58.700  1.00  0.00     0.150 C 
BRANCH   7   8
ATOM      8  N   UNL     1      -7.468  25.736  59.663  1.00  0.00    -0.345 N 
ATOM      9  C   UNL     1      -7.878  25.804  60.959  1.00  0.00     0.217 C 
ATOM     10  O   UNL     1      -8.668  25.024  61.485  1.00  0.00    -0.275 OA
ATOM     11  C   UNL     1      -7.294  26.971  61.708  1.00  0.00     0.114 C 
ATOM     12  H   UNL     1      -6.840  26.441  59.256  1.00  0.00     0.164 HD
ENDBRANCH   7   8
BRANCH   7  13
ATOM     13  C   UNL     1      -8.879  25.325  57.683  1.00  0.00     0.057 A 
ATOM     14  C   UNL     1      -8.641  26.405  56.880  1.00  0.00    -0.085 A 
ATOM     15  C   UNL     1     -10.160  24.565  57.699  1.00  0.00     0.341 A 
ATOM     16  C   UNL     1      -9.786  26.767  55.980  1.00  0.00     0.010 A 
ATOM     17  O   UNL     1     -11.159  24.947  56.827  1.00  0.00    -0.423 OA
ATOM     18  O   UNL     1     -10.356  23.614  58.458  1.00  0.00    -0.246 OA
ATOM     19  C   UNL     1      -9.717  27.854  55.088  1.00  0.00     0.011 A 
ATOM     20  C   UNL     1     -10.972  26.042  55.983  1.00  0.00     0.137 A 
ATOM     21  C   UNL     1     -10.785  28.190  54.246  1.00  0.00     0.001 A 
ATOM     22  C   UNL     1     -12.051  26.360  55.148  1.00  0.00     0.048 A 
ATOM     23  C   UNL     1     -11.955  27.439  54.276  1.00  0.00     0.004 A 
ATOM     24  O   UNL     1      -7.569  27.088  56.833  1.00  0.00    -0.872 OA
ENDBRANCH   7  13
ENDBRANCH   1   7
BRANCH   3  25
ATOM     25  N   UNL     1      -5.123  23.862  54.593  1.00  0.00     0.062 N 
ATOM     26  O   UNL     1      -4.274  23.136  54.049  1.00  0.00    -0.258 OA
ATOM     27  O   UNL     1      -5.799  24.708  53.990  1.00  0.00    -0.258 OA
ENDBRANCH   3  25
TORSDOF 4
ENDMDL
MODEL 9
REMARK VINA RESULT:   -10.202      2.082      3.115
REMARK INTER + INTRA:         -13.747
REMARK INTER:                 -13.452
REMARK INTRA:                  -0.295
REMARK UNBOUND:                -1.159
REMARK SMILES CC(=O)N[C@H](c1cccc([N+](=O)[O-])c1)c1c([O-])c2ccccc2oc1=O
REMARK SMILES IDX 6 1 14 2 10 3 9 4 8 5 7 6 5 7 4 8 2 9 3 10 1 11 15 13 16 14
REMARK SMILES IDX 25 15 18 16 24 17 26 18 19 19 23 20 20 21 22 22 21 23 17 24
REMARK SMILES IDX 11 25 12 26 13 27
REMARK H PARENT 4 12
ROOT
ATOM      1  C   UNL     1      -9.172  25.562  57.404  1.00  0.00    -0.014 A 
ATOM      2  C   UNL     1     -10.119  24.766  58.069  1.00  0.00     0.091 A 
ATOM      3  C   UNL     1     -11.437  24.706  57.597  1.00  0.00     0.269 A 
ATOM      4  C   UNL     1     -11.825  25.432  56.462  1.00  0.00     0.085 A 
ATOM      5  C   UNL     1     -10.887  26.220  55.797  1.00  0.00     0.007 A 
ATOM      6  C   UNL     1      -9.573  26.281  56.262  1.00  0.00     0.007 A 
ENDROOT
BRANCH   1   7
ATOM      7  C   UNL     1      -7.729  25.625  57.908  1.00  0.00     0.150 C 
BRANCH   7   8
ATOM      8  N   UNL     1      -7.721  25.619  59.360  1.00  0.00    -0.345 N 
ATOM      9  C   UNL     1      -7.901  26.709  60.153  1.00  0.00     0.217 C 
ATOM     10  O   UNL     1      -8.090  27.851  59.742  1.00  0.00    -0.275 OA
ATOM     11  C   UNL     1      -7.814  26.397  61.623  1.00  0.00     0.114 C 
ATOM     12  H   UNL     1      -7.521  24.690  59.751  1.00  0.00     0.164 HD
ENDBRANCH   7   8
BRANCH   7  13
ATOM     13  C   UNL     1      -6.859  24.488  57.345  1.00  0.00     0.057 A 
ATOM     14  C   UNL     1      -6.157  24.534  56.173  1.00  0.00    -0.085 A 
ATOM     15  C   UNL     1      -6.893  23.306  58.251  1.00  0.00     0.341 A 
ATOM     16  C   UNL     1      -5.390  23.280  55.867  1.00  0.00     0.010 A 
ATOM     17  O   UNL     1      -6.144  22.197  57.909  1.00  0.00    -0.423 OA
ATOM     18  O   UNL     1      -7.561  23.284  59.286  1.00  0.00    -0.246 OA
ATOM     19  C   UNL     1      -4.614  23.149  54.699  1.00  0.00     0.011 A 
ATOM     20  C   UNL     1      -5.407  22.187  56.725  1.00  0.00     0.137 A 
ATOM     21  C   UNL     1      -3.895  21.981  54.415  1.00  0.00     0.001 A 
ATOM     22  C   UNL     1      -4.695  21.010  56.460  1.00  0.00     0.048 A 
ATOM     23  C   UNL     1      -3.936  20.908  55.300  1.00  0.00     0.004 A 
ATOM     24  O   UNL     1      -6.100  25.515  55.366  1.00  0.00    -0.872 OA
ENDBRANCH   7  13
ENDBRANCH   1   7
BRANCH   3  25
ATOM     25  N   UNL     1     -12.425  23.875  58.292  1.00  0.00     0.062 N 
ATOM     26  O   UNL     1     -13.625  24.169  58.157  1.00  0.00    -0.258 OA
ATOM     27  O   UNL     1     -12.018  22.927  58.980  1.00  0.00    -0.258 OA
ENDBRANCH   3  25
TORSDOF 4
ENDMDL
MODEL 10
REMARK VINA RESULT:    -9.940      2.215      6.982
REMARK INTER + INTRA:         -13.424
REMARK INTER:                 -12.865
REMARK INTRA:                  -0.559
REMARK UNBOUND:                -1.159
REMARK SMILES CC(=O)N[C@H](c1cccc([N+](=O)[O-])c1)c1c([O-])c2ccccc2oc1=O
REMARK SMILES IDX 6 1 14 2 10 3 9 4 8 5 7 6 5 7 4 8 2 9 3 10 1 11 15 13 16 14
REMARK SMILES IDX 25 15 18 16 24 17 26 18 19 19 23 20 20 21 22 22 21 23 17 24
REMARK SMILES IDX 11 25 12 26 13 27
REMARK H PARENT 4 12
ROOT
ATOM      1  C   UNL     1      -8.176  26.759  57.730  1.00  0.00    -0.014 A 
ATOM      2  C   UNL     1      -7.564  25.780  58.530  1.00  0.00     0.091 A 
ATOM      3  C   UNL     1      -7.675  25.849  59.925  1.00  0.00     0.269 A 
ATOM      4  C   UNL     1      -8.393  26.886  60.537  1.00  0.00     0.085 A 
ATOM      5  C   UNL     1      -9.004  27.857  59.745  1.00  0.00     0.007 A 
ATOM      6  C   UNL     1      -8.899  27.792  58.356  1.00  0.00     0.007 A 
ENDROOT
BRANCH   1   7
ATOM      7  C   UNL     1      -8.068  26.686  56.206  1.00  0.00     0.150 C 
BRANCH   7   8
ATOM      8  N   UNL     1      -7.421  25.443  55.824  1.00  0.00    -0.345 N 
ATOM      9  C   UNL     1      -6.199  25.339  55.235  1.00  0.00     0.217 C 
ATOM     10  O   UNL     1      -5.480  26.292  54.942  1.00  0.00    -0.275 OA
ATOM     11  C   UNL     1      -5.802  23.920  54.932  1.00  0.00     0.114 C 
ATOM     12  H   UNL     1      -8.006  24.618  56.008  1.00  0.00     0.164 HD
ENDBRANCH   7   8
BRANCH   7  13
ATOM     13  C   UNL     1      -9.433  26.834  55.511  1.00  0.00     0.057 A 
ATOM     14  C   UNL     1      -9.805  27.880  54.713  1.00  0.00    -0.085 A 
ATOM     15  C   UNL     1     -10.315  25.680  55.839  1.00  0.00     0.341 A 
ATOM     16  C   UNL     1     -11.198  27.768  54.163  1.00  0.00     0.010 A 
ATOM     17  O   UNL     1     -11.576  25.639  55.277  1.00  0.00    -0.423 OA
ATOM     18  O   UNL     1      -9.962  24.768  56.587  1.00  0.00    -0.246 OA
ATOM     19  C   UNL     1     -11.748  28.756  53.325  1.00  0.00     0.011 A 
ATOM     20  C   UNL     1     -12.010  26.679  54.454  1.00  0.00     0.137 A 
ATOM     21  C   UNL     1     -13.047  28.649  52.809  1.00  0.00     0.001 A 
ATOM     22  C   UNL     1     -13.310  26.552  53.948  1.00  0.00     0.048 A 
ATOM     23  C   UNL     1     -13.829  27.543  53.121  1.00  0.00     0.004 A 
ATOM     24  O   UNL     1      -9.092  28.887  54.408  1.00  0.00    -0.872 OA
ENDBRANCH   7  13
ENDBRANCH   1   7
BRANCH   3  25
ATOM     25  N   UNL     1      -7.036  24.826  60.760  1.00  0.00     0.062 N 
ATOM     26  O   UNL     1      -6.076  25.175  61.468  1.00  0.00    -0.258 OA
ATOM     27  O   UNL     1      -7.479  23.669  60.716  1.00  0.00    -0.258 OA
ENDBRANCH   3  25
TORSDOF 4
ENDMDL
MODEL 11
REMARK VINA RESULT:    -9.926      2.017      3.339
REMARK INTER + INTRA:         -13.406
REMARK INTER:                 -12.316
REMARK INTRA:                  -1.091
REMARK UNBOUND:                -1.159
REMARK SMILES CC(=O)N[C@H](c1cccc([N+](=O)[O-])c1)c1c([O-])c2ccccc2oc1=O
REMARK SMILES IDX 6 1 14 2 10 3 9 4 8 5 7 6 5 7 4 8 2 9 3 10 1 11 15 13 16 14
REMARK SMILES IDX 25 15 18 16 24 17 26 18 19 19 23 20 20 21 22 22 21 23 17 24
REMARK SMILES IDX 11 25 12 26 13 27
REMARK H PARENT 4 12
ROOT
ATOM      1  C   UNL     1     -10.282  26.517  56.447  1.00  0.00    -0.014 A 
ATOM      2  C   UNL     1     -11.413  26.392  55.623  1.00  0.00     0.091 A 
ATOM      3  C   UNL     1     -11.552  27.217  54.499  1.00  0.00     0.269 A 
ATOM      4  C   UNL     1     -10.573  28.169  54.182  1.00  0.00     0.085 A 
ATOM      5  C   UNL     1      -9.448  28.293  54.996  1.00  0.00     0.007 A 
ATOM      6  C   UNL     1      -9.303  27.472  56.115  1.00  0.00     0.007 A 
ENDROOT
BRANCH   1   7
ATOM      7  C   UNL     1     -10.118  25.614  57.670  1.00  0.00     0.150 C 
BRANCH   7   8
ATOM      8  N   UNL     1     -11.184  24.629  57.694  1.00  0.00    -0.345 N 
ATOM      9  C   UNL     1     -11.840  24.204  58.807  1.00  0.00     0.217 C 
ATOM     10  O   UNL     1     -11.610  24.597  59.948  1.00  0.00    -0.275 OA
ATOM     11  C   UNL     1     -12.881  23.155  58.522  1.00  0.00     0.114 C 
ATOM     12  H   UNL     1     -11.383  24.236  56.765  1.00  0.00     0.164 HD
ENDBRANCH   7   8
BRANCH   7  13
ATOM     13  C   UNL     1      -8.738  24.936  57.720  1.00  0.00     0.057 A 
ATOM     14  C   UNL     1      -8.182  24.198  56.713  1.00  0.00    -0.085 A 
ATOM     15  C   UNL     1      -8.082  25.178  59.036  1.00  0.00     0.341 A 
ATOM     16  C   UNL     1      -6.820  23.651  57.031  1.00  0.00     0.010 A 
ATOM     17  O   UNL     1      -6.820  24.659  59.244  1.00  0.00    -0.423 OA
ATOM     18  O   UNL     1      -8.623  25.822  59.936  1.00  0.00    -0.246 OA
ATOM     19  C   UNL     1      -6.100  22.865  56.110  1.00  0.00     0.011 A 
ATOM     20  C   UNL     1      -6.203  23.898  58.250  1.00  0.00     0.137 A 
ATOM     21  C   UNL     1      -4.828  22.358  56.406  1.00  0.00     0.001 A 
ATOM     22  C   UNL     1      -4.932  23.401  58.566  1.00  0.00     0.048 A 
ATOM     23  C   UNL     1      -4.242  22.628  57.637  1.00  0.00     0.004 A 
ATOM     24  O   UNL     1      -8.702  23.959  55.577  1.00  0.00    -0.872 OA
ENDBRANCH   7  13
ENDBRANCH   1   7
BRANCH   3  25
ATOM     25  N   UNL     1     -12.734  27.086  53.638  1.00  0.00     0.062 N 
ATOM     26  O   UNL     1     -12.700  27.634  52.524  1.00  0.00    -0.258 OA
ATOM     27  O   UNL     1     -13.703  26.442  54.064  1.00  0.00    -0.258 OA
ENDBRANCH   3  25
TORSDOF 4
ENDMDL
MODEL 12
REMARK VINA RESULT:    -9.786      1.934      2.894
REMARK INTER + INTRA:         -13.234
REMARK INTER:                 -12.247
REMARK INTRA:                  -0.987
REMARK UNBOUND:                -1.159
REMARK SMILES CC(=O)N[C@H](c1cccc([N+](=O)[O-])c1)c1c([O-])c2ccccc2oc1=O
REMARK SMILES IDX 6 1 14 2 10 3 9 4 8 5 7 6 5 7 4 8 2 9 3 10 1 11 15 13 16 14
REMARK SMILES IDX 25 15 18 16 24 17 26 18 19 19 23 20 20 21 22 22 21 23 17 24
REMARK SMILES IDX 11 25 12 26 13 27
REMARK H PARENT 4 12
ROOT
ATOM      1  C   UNL     1      -9.105  26.038  57.026  1.00  0.00    -0.014 A 
ATOM      2  C   UNL     1     -10.243  26.023  56.202  1.00  0.00     0.091 A 
ATOM      3  C   UNL     1     -10.407  27.010  55.221  1.00  0.00     0.269 A 
ATOM      4  C   UNL     1      -9.445  28.015  55.047  1.00  0.00     0.085 A 
ATOM      5  C   UNL     1      -8.313  28.030  55.860  1.00  0.00     0.007 A 
ATOM      6  C   UNL     1      -8.144  27.049  56.837  1.00  0.00     0.007 A 
ENDROOT
BRANCH   1   7
ATOM      7  C   UNL     1      -8.913  24.960  58.094  1.00  0.00     0.150 C 
BRANCH   7   8
ATOM      8  N   UNL     1     -10.074  24.088  58.117  1.00  0.00    -0.345 N 
ATOM      9  C   UNL     1     -11.135  24.210  58.960  1.00  0.00     0.217 C 
ATOM     10  O   UNL     1     -11.247  25.077  59.823  1.00  0.00    -0.275 OA
ATOM     11  C   UNL     1     -12.176  23.141  58.766  1.00  0.00     0.114 C 
ATOM     12  H   UNL     1     -10.005  23.317  57.441  1.00  0.00     0.164 HD
ENDBRANCH   7   8
BRANCH   7  13
ATOM     13  C   UNL     1      -7.620  24.152  57.890  1.00  0.00     0.057 A 
ATOM     14  C   UNL     1      -7.282  23.473  56.753  1.00  0.00    -0.085 A 
ATOM     15  C   UNL     1      -6.777  24.195  59.117  1.00  0.00     0.341 A 
ATOM     16  C   UNL     1      -5.957  22.770  56.828  1.00  0.00     0.010 A 
ATOM     17  O   UNL     1      -5.562  23.539  59.100  1.00  0.00    -0.423 OA
ATOM     18  O   UNL     1      -7.124  24.790  60.138  1.00  0.00    -0.246 OA
ATOM     19  C   UNL     1      -5.452  22.019  55.749  1.00  0.00     0.011 A 
ATOM     20  C   UNL     1      -5.164  22.830  57.967  1.00  0.00     0.137 A 
ATOM     21  C   UNL     1      -4.214  21.366  55.818  1.00  0.00     0.001 A 
ATOM     22  C   UNL     1      -3.924  22.185  58.056  1.00  0.00     0.048 A 
ATOM     23  C   UNL     1      -3.448  21.451  56.975  1.00  0.00     0.004 A 
ATOM     24  O   UNL     1      -7.967  23.403  55.684  1.00  0.00    -0.872 OA
ENDBRANCH   7  13
ENDBRANCH   1   7
BRANCH   3  25
ATOM     25  N   UNL     1     -11.595  26.994  54.361  1.00  0.00     0.062 N 
ATOM     26  O   UNL     1     -12.360  26.019  54.451  1.00  0.00    -0.258 OA
ATOM     27  O   UNL     1     -11.776  27.948  53.590  1.00  0.00    -0.258 OA
ENDBRANCH   3  25
TORSDOF 4
ENDMDL
MODEL 13
REMARK VINA RESULT:    -9.203      2.406      6.703
REMARK INTER + INTRA:         -12.515
REMARK INTER:                 -12.191
REMARK INTRA:                  -0.324
REMARK UNBOUND:                -1.159
REMARK SMILES CC(=O)N[C@H](c1cccc([N+](=O)[O-])c1)c1c([O-])c2ccccc2oc1=O
REMARK SMILES IDX 6 1 14 2 10 3 9 4 8 5 7 6 5 7 4 8 2 9 3 10 1 11 15 13 16 14
REMARK SMILES IDX 25 15 18 16 24 17 26 18 19 19 23 20 20 21 22 22 21 23 17 24
REMARK SMILES IDX 11 25 12 26 13 27
REMARK H PARENT 4 12
ROOT
ATOM      1  C   UNL     1      -6.855  23.845  57.359  1.00  0.00    -0.014 A 
ATOM      2  C   UNL     1      -5.665  23.307  57.877  1.00  0.00     0.091 A 
ATOM      3  C   UNL     1      -4.674  22.837  57.005  1.00  0.00     0.269 A 
ATOM      4  C   UNL     1      -4.853  22.897  55.616  1.00  0.00     0.085 A 
ATOM      5  C   UNL     1      -6.032  23.433  55.099  1.00  0.00     0.007 A 
ATOM      6  C   UNL     1      -7.021  23.905  55.963  1.00  0.00     0.007 A 
ENDROOT
BRANCH   1   7
ATOM      7  C   UNL     1      -7.938  24.369  58.304  1.00  0.00     0.150 C 
BRANCH   7   8
ATOM      8  N   UNL     1      -7.346  25.292  59.256  1.00  0.00    -0.345 N 
ATOM      9  C   UNL     1      -7.748  25.459  60.545  1.00  0.00     0.217 C 
ATOM     10  O   UNL     1      -8.675  24.851  61.074  1.00  0.00    -0.275 OA
ATOM     11  C   UNL     1      -6.961  26.508  61.283  1.00  0.00     0.114 C 
ATOM     12  H   UNL     1      -6.593  25.858  58.845  1.00  0.00     0.164 HD
ENDBRANCH   7   8
BRANCH   7  13
ATOM     13  C   UNL     1      -9.107  25.026  57.551  1.00  0.00     0.057 A 
ATOM     14  C   UNL     1      -9.000  26.078  56.684  1.00  0.00    -0.085 A 
ATOM     15  C   UNL     1     -10.395  24.367  57.907  1.00  0.00     0.341 A 
ATOM     16  C   UNL     1     -10.305  26.520  56.089  1.00  0.00     0.010 A 
ATOM     17  O   UNL     1     -11.551  24.819  57.300  1.00  0.00    -0.423 OA
ATOM     18  O   UNL     1     -10.463  23.441  58.716  1.00  0.00    -0.246 OA
ATOM     19  C   UNL     1     -10.383  27.591  55.178  1.00  0.00     0.011 A 
ATOM     20  C   UNL     1     -11.501  25.889  56.406  1.00  0.00     0.137 A 
ATOM     21  C   UNL     1     -11.600  28.001  54.620  1.00  0.00     0.001 A 
ATOM     22  C   UNL     1     -12.729  26.282  55.859  1.00  0.00     0.048 A 
ATOM     23  C   UNL     1     -12.777  27.343  54.961  1.00  0.00     0.004 A 
ATOM     24  O   UNL     1      -7.927  26.676  56.353  1.00  0.00    -0.872 OA
ENDBRANCH   7  13
ENDBRANCH   1   7
BRANCH   3  25
ATOM     25  N   UNL     1      -3.431  22.275  57.547  1.00  0.00     0.062 N 
ATOM     26  O   UNL     1      -2.358  22.764  57.154  1.00  0.00    -0.258 OA
ATOM     27  O   UNL     1      -3.512  21.345  58.362  1.00  0.00    -0.258 OA
ENDBRANCH   3  25
TORSDOF 4
ENDMDL
MODEL 14
REMARK VINA RESULT:    -8.533      2.272      3.442
REMARK INTER + INTRA:         -11.688
REMARK INTER:                 -11.760
REMARK INTRA:                   0.072
REMARK UNBOUND:                -1.159
REMARK SMILES CC(=O)N[C@H](c1cccc([N+](=O)[O-])c1)c1c([O-])c2ccccc2oc1=O
REMARK SMILES IDX 6 1 14 2 10 3 9 4 8 5 7 6 5 7 4 8 2 9 3 10 1 11 15 13 16 14
REMARK SMILES IDX 25 15 18 16 24 17 26 18 19 19 23 20 20 21 22 22 21 23 17 24
REMARK SMILES IDX 11 25 12 26 13 27
REMARK H PARENT 4 12
ROOT
ATOM      1  C   UNL     1     -11.025  25.612  57.227  1.00  0.00    -0.014 A 
ATOM      2  C   UNL     1     -10.245  26.599  56.600  1.00  0.00     0.091 A 
ATOM      3  C   UNL     1     -10.769  27.321  55.520  1.00  0.00     0.269 A 
ATOM      4  C   UNL     1     -12.068  27.073  55.054  1.00  0.00     0.085 A 
ATOM      5  C   UNL     1     -12.846  26.098  55.677  1.00  0.00     0.007 A 
ATOM      6  C   UNL     1     -12.330  25.377  56.754  1.00  0.00     0.007 A 
ENDROOT
BRANCH   1   7
ATOM      7  C   UNL     1     -10.464  24.825  58.413  1.00  0.00     0.150 C 
BRANCH   7   8
ATOM      8  N   UNL     1     -11.288  23.654  58.652  1.00  0.00    -0.345 N 
ATOM      9  C   UNL     1     -12.363  23.603  59.484  1.00  0.00     0.217 C 
ATOM     10  O   UNL     1     -12.775  24.548  60.153  1.00  0.00    -0.275 OA
ATOM     11  C   UNL     1     -13.003  22.244  59.548  1.00  0.00     0.114 C 
ATOM     12  H   UNL     1     -10.953  22.823  58.147  1.00  0.00     0.164 HD
ENDBRANCH   7   8
BRANCH   7  13
ATOM     13  C   UNL     1      -8.990  24.432  58.214  1.00  0.00     0.057 A 
ATOM     14  C   UNL     1      -8.421  24.069  57.025  1.00  0.00    -0.085 A 
ATOM     15  C   UNL     1      -8.254  24.485  59.508  1.00  0.00     0.341 A 
ATOM     16  C   UNL     1      -6.960  23.736  57.119  1.00  0.00     0.010 A 
ATOM     17  O   UNL     1      -6.907  24.184  59.509  1.00  0.00    -0.423 OA
ATOM     18  O   UNL     1      -8.803  24.786  60.569  1.00  0.00    -0.246 OA
ATOM     19  C   UNL     1      -6.213  23.339  55.993  1.00  0.00     0.011 A 
ATOM     20  C   UNL     1      -6.273  23.807  58.324  1.00  0.00     0.137 A 
ATOM     21  C   UNL     1      -4.849  23.031  56.080  1.00  0.00     0.001 A 
ATOM     22  C   UNL     1      -4.909  23.505  58.433  1.00  0.00     0.048 A 
ATOM     23  C   UNL     1      -4.195  23.116  57.305  1.00  0.00     0.004 A 
ATOM     24  O   UNL     1      -9.005  24.005  55.897  1.00  0.00    -0.872 OA
ENDBRANCH   7  13
ENDBRANCH   1   7
BRANCH   3  25
ATOM     25  N   UNL     1      -9.955  28.351  54.865  1.00  0.00     0.062 N 
ATOM     26  O   UNL     1      -8.736  28.361  55.105  1.00  0.00    -0.258 OA
ATOM     27  O   UNL     1     -10.519  29.157  54.112  1.00  0.00    -0.258 OA
ENDBRANCH   3  25
TORSDOF 4
ENDMDL
MODEL 15
REMARK VINA RESULT:    -8.521      2.738      6.382
REMARK INTER + INTRA:         -11.673
REMARK INTER:                 -11.270
REMARK INTRA:                  -0.403
REMARK UNBOUND:                -1.159
REMARK SMILES CC(=O)N[C@H](c1cccc([N+](=O)[O-])c1)c1c([O-])c2ccccc2oc1=O
REMARK SMILES IDX 6 1 14 2 10 3 9 4 8 5 7 6 5 7 4 8 2 9 3 10 1 11 15 13 16 14
REMARK SMILES IDX 25 15 18 16 24 17 26 18 19 19 23 20 20 21 22 22 21 23 17 24
REMARK SMILES IDX 11 25 12 26 13 27
REMARK H PARENT 4 12
ROOT
ATOM      1  C   UNL     1      -9.400  25.723  58.105  1.00  0.00    -0.014 A 
ATOM      2  C   UNL     1     -10.504  24.865  58.243  1.00  0.00     0.091 A 
ATOM      3  C   UNL     1     -11.103  24.695  59.498  1.00  0.00     0.269 A 
ATOM      4  C   UNL     1     -10.615  25.374  60.624  1.00  0.00     0.085 A 
ATOM      5  C   UNL     1      -9.522  26.229  60.490  1.00  0.00     0.007 A 
ATOM      6  C   UNL     1      -8.923  26.404  59.242  1.00  0.00     0.007 A 
ENDROOT
BRANCH   1   7
ATOM      7  C   UNL     1      -8.745  25.922  56.737  1.00  0.00     0.150 C 
BRANCH   7   8
ATOM      8  N   UNL     1      -8.322  24.636  56.210  1.00  0.00    -0.345 N 
ATOM      9  C   UNL     1      -7.238  23.930  56.631  1.00  0.00     0.217 C 
ATOM     10  O   UNL     1      -6.466  24.294  57.515  1.00  0.00    -0.275 OA
ATOM     11  C   UNL     1      -7.036  22.643  55.879  1.00  0.00     0.114 C 
ATOM     12  H   UNL     1      -8.913  24.311  55.435  1.00  0.00     0.164 HD
ENDBRANCH   7   8
BRANCH   7  13
ATOM     13  C   UNL     1      -9.667  26.649  55.744  1.00  0.00     0.057 A 
ATOM     14  C   UNL     1     -10.850  26.164  55.259  1.00  0.00    -0.085 A 
ATOM     15  C   UNL     1      -9.087  27.967  55.360  1.00  0.00     0.341 A 
ATOM     16  C   UNL     1     -11.547  27.086  54.302  1.00  0.00     0.010 A 
ATOM     17  O   UNL     1      -9.800  28.767  54.489  1.00  0.00    -0.423 OA
ATOM     18  O   UNL     1      -8.004  28.363  55.790  1.00  0.00    -0.246 OA
ATOM     19  C   UNL     1     -12.775  26.747  53.703  1.00  0.00     0.011 A 
ATOM     20  C   UNL     1     -11.014  28.323  53.963  1.00  0.00     0.137 A 
ATOM     21  C   UNL     1     -13.428  27.609  52.812  1.00  0.00     0.001 A 
ATOM     22  C   UNL     1     -11.650  29.201  53.076  1.00  0.00     0.048 A 
ATOM     23  C   UNL     1     -12.863  28.841  52.499  1.00  0.00     0.004 A 
ATOM     24  O   UNL     1     -11.383  25.047  55.552  1.00  0.00    -0.872 OA
ENDBRANCH   7  13
ENDBRANCH   1   7
BRANCH   3  25
ATOM     25  N   UNL     1     -12.256  23.800  59.642  1.00  0.00     0.062 N 
ATOM     26  O   UNL     1     -12.188  22.681  59.106  1.00  0.00    -0.258 OA
ATOM     27  O   UNL     1     -13.237  24.201  60.285  1.00  0.00    -0.258 OA
ENDBRANCH   3  25
TORSDOF 4
ENDMDL
MODEL 16
REMARK VINA RESULT:    -8.214      2.048      2.744
REMARK INTER + INTRA:         -11.294
REMARK INTER:                 -11.365
REMARK INTRA:                   0.071
REMARK UNBOUND:                -1.159
REMARK SMILES CC(=O)N[C@H](c1cccc([N+](=O)[O-])c1)c1c([O-])c2ccccc2oc1=O
REMARK SMILES IDX 6 1 14 2 10 3 9 4 8 5 7 6 5 7 4 8 2 9 3 10 1 11 15 13 16 14
REMARK SMILES IDX 25 15 18 16 24 17 26 18 19 19 23 20 20 21 22 22 21 23 17 24
REMARK SMILES IDX 11 25 12 26 13 27
REMARK H PARENT 4 12
ROOT
ATOM      1  C   UNL     1      -9.663  26.211  56.652  1.00  0.00    -0.014 A 
ATOM      2  C   UNL     1     -10.872  26.170  55.938  1.00  0.00     0.091 A 
ATOM      3  C   UNL     1     -11.136  27.135  54.956  1.00  0.00     0.269 A 
ATOM      4  C   UNL     1     -10.204  28.144  54.674  1.00  0.00     0.085 A 
ATOM      5  C   UNL     1      -9.001  28.184  55.378  1.00  0.00     0.007 A 
ATOM      6  C   UNL     1      -8.733  27.225  56.355  1.00  0.00     0.007 A 
ENDROOT
BRANCH   1   7
ATOM      7  C   UNL     1      -9.364  25.156  57.719  1.00  0.00     0.150 C 
BRANCH   7   8
ATOM      8  N   UNL     1     -10.508  24.274  57.864  1.00  0.00    -0.345 N 
ATOM      9  C   UNL     1     -11.346  24.241  58.936  1.00  0.00     0.217 C 
ATOM     10  O   UNL     1     -11.239  24.954  59.930  1.00  0.00    -0.275 OA
ATOM     11  C   UNL     1     -12.428  23.202  58.814  1.00  0.00     0.114 C 
ATOM     12  H   UNL     1     -10.612  23.625  57.074  1.00  0.00     0.164 HD
ENDBRANCH   7   8
BRANCH   7  13
ATOM     13  C   UNL     1      -8.085  24.357  57.413  1.00  0.00     0.057 A 
ATOM     14  C   UNL     1      -7.035  24.185  58.272  1.00  0.00    -0.085 A 
ATOM     15  C   UNL     1      -8.134  23.798  56.033  1.00  0.00     0.341 A 
ATOM     16  C   UNL     1      -5.914  23.356  57.714  1.00  0.00     0.010 A 
ATOM     17  O   UNL     1      -7.073  23.028  55.601  1.00  0.00    -0.423 OA
ATOM     18  O   UNL     1      -9.082  23.996  55.272  1.00  0.00    -0.246 OA
ATOM     19  C   UNL     1      -4.751  23.080  58.458  1.00  0.00     0.011 A 
ATOM     20  C   UNL     1      -5.973  22.819  56.434  1.00  0.00     0.137 A 
ATOM     21  C   UNL     1      -3.707  22.304  57.938  1.00  0.00     0.001 A 
ATOM     22  C   UNL     1      -4.941  22.039  55.896  1.00  0.00     0.048 A 
ATOM     23  C   UNL     1      -3.804  21.781  56.653  1.00  0.00     0.004 A 
ATOM     24  O   UNL     1      -6.944  24.645  59.454  1.00  0.00    -0.872 OA
ENDBRANCH   7  13
ENDBRANCH   1   7
BRANCH   3  25
ATOM     25  N   UNL     1     -12.399  27.093  54.211  1.00  0.00     0.062 N 
ATOM     26  O   UNL     1     -13.313  26.383  54.664  1.00  0.00    -0.258 OA
ATOM     27  O   UNL     1     -12.490  27.760  53.170  1.00  0.00    -0.258 OA
ENDBRANCH   3  25
TORSDOF 4
ENDMDL
