MODEL 1
REMARK VINA RESULT:    -4.433      0.000      0.000
REMARK INTER + INTRA:          -6.418
REMARK INTER:                  -5.469
REMARK INTRA:                  -0.949
REMARK UNBOUND:                -0.949
REMARK SMILES CC(=O)N[C@@H](c1cccc([N+](=O)[O-])c1)c1c([O-])c2ccccc2oc1=O
REMARK SMILES IDX 6 1 14 2 10 3 9 4 8 5 7 6 5 7 4 8 2 9 3 10 1 11 15 13 16 14
REMARK SMILES IDX 25 15 18 16 24 17 26 18 19 19 23 20 20 21 22 22 21 23 17 24
REMARK SMILES IDX 11 25 12 26 13 27
REMARK H PARENT 4 12
ROOT
ATOM      1  C   UNL     1      -2.681  34.802  48.867  1.00  0.00    -0.014 A 
ATOM      2  C   UNL     1      -3.225  34.030  47.828  1.00  0.00     0.091 A 
ATOM      3  C   UNL     1      -4.584  34.147  47.510  1.00  0.00     0.269 A 
ATOM      4  C   UNL     1      -5.414  35.027  48.220  1.00  0.00     0.085 A 
ATOM      5  C   UNL     1      -4.878  35.791  49.255  1.00  0.00     0.007 A 
ATOM      6  C   UNL     1      -3.525  35.676  49.578  1.00  0.00     0.007 A 
ENDROOT
BRANCH   1   7
ATOM      7  C   UNL     1      -1.199  34.674  49.229  1.00  0.00     0.150 C 
BRANCH   7   8
ATOM      8  N   UNL     1      -0.752  33.317  48.970  1.00  0.00    -0.345 N 
ATOM      9  C   UNL     1      -0.054  32.913  47.875  1.00  0.00     0.217 C 
ATOM     10  O   UNL     1       0.295  33.650  46.956  1.00  0.00    -0.275 OA
ATOM     11  C   UNL     1       0.293  31.449  47.898  1.00  0.00     0.114 C 
ATOM     12  H   UNL     1      -0.983  32.672  49.736  1.00  0.00     0.164 HD
ENDBRANCH   7   8
BRANCH   7  13
ATOM     13  C   UNL     1      -0.912  35.083  50.684  1.00  0.00     0.057 A 
ATOM     14  C   UNL     1      -1.298  34.385  51.794  1.00  0.00    -0.085 A 
ATOM     15  C   UNL     1      -0.131  36.353  50.725  1.00  0.00     0.341 A 
ATOM     16  C   UNL     1      -0.883  35.015  53.091  1.00  0.00     0.010 A 
ATOM     17  O   UNL     1       0.195  36.878  51.959  1.00  0.00    -0.423 OA
ATOM     18  O   UNL     1       0.229  36.942  49.708  1.00  0.00    -0.246 OA
ATOM     19  C   UNL     1      -1.193  34.432  54.335  1.00  0.00     0.011 A 
ATOM     20  C   UNL     1      -0.174  36.210  53.128  1.00  0.00     0.137 A 
ATOM     21  C   UNL     1      -0.810  35.022  55.546  1.00  0.00     0.001 A 
ATOM     22  C   UNL     1       0.219  36.817  54.327  1.00  0.00     0.048 A 
ATOM     23  C   UNL     1      -0.101  36.220  55.541  1.00  0.00     0.004 A 
ATOM     24  O   UNL     1      -1.959  33.299  51.810  1.00  0.00    -0.872 OA
ENDBRANCH   7  13
ENDBRANCH   1   7
BRANCH   3  25
ATOM     25  N   UNL     1      -5.152  33.341  46.424  1.00  0.00     0.062 N 
ATOM     26  O   UNL     1      -6.118  33.811  45.800  1.00  0.00    -0.258 OA
ATOM     27  O   UNL     1      -4.642  32.238  46.180  1.00  0.00    -0.258 OA
ENDBRANCH   3  25
TORSDOF 4
ENDMDL
MODEL 2
REMARK VINA RESULT:    -4.298      2.126      2.589
REMARK INTER + INTRA:          -6.252
REMARK INTER:                  -5.279
REMARK INTRA:                  -0.973
REMARK UNBOUND:                -0.949
REMARK SMILES CC(=O)N[C@@H](c1cccc([N+](=O)[O-])c1)c1c([O-])c2ccccc2oc1=O
REMARK SMILES IDX 6 1 14 2 10 3 9 4 8 5 7 6 5 7 4 8 2 9 3 10 1 11 15 13 16 14
REMARK SMILES IDX 25 15 18 16 24 17 26 18 19 19 23 20 20 21 22 22 21 23 17 24
REMARK SMILES IDX 11 25 12 26 13 27
REMARK H PARENT 4 12
ROOT
ATOM      1  C   UNL     1      -2.895  33.218  48.504  1.00  0.00    -0.014 A 
ATOM      2  C   UNL     1      -3.505  34.449  48.794  1.00  0.00     0.091 A 
ATOM      3  C   UNL     1      -4.626  34.861  48.062  1.00  0.00     0.269 A 
ATOM      4  C   UNL     1      -5.149  34.059  47.038  1.00  0.00     0.085 A 
ATOM      5  C   UNL     1      -4.543  32.838  46.745  1.00  0.00     0.007 A 
ATOM      6  C   UNL     1      -3.424  32.424  47.469  1.00  0.00     0.007 A 
ENDROOT
BRANCH   1   7
ATOM      7  C   UNL     1      -1.663  32.764  49.292  1.00  0.00     0.150 C 
BRANCH   7   8
ATOM      8  N   UNL     1      -1.899  31.444  49.846  1.00  0.00    -0.345 N 
ATOM      9  C   UNL     1      -0.950  30.637  50.393  1.00  0.00     0.217 C 
ATOM     10  O   UNL     1       0.240  30.925  50.491  1.00  0.00    -0.275 OA
ATOM     11  C   UNL     1      -1.501  29.336  50.909  1.00  0.00     0.114 C 
ATOM     12  H   UNL     1      -2.892  31.178  49.826  1.00  0.00     0.164 HD
ENDBRANCH   7   8
BRANCH   7  13
ATOM     13  C   UNL     1      -1.268  33.764  50.392  1.00  0.00     0.057 A 
ATOM     14  C   UNL     1      -1.808  33.815  51.647  1.00  0.00    -0.085 A 
ATOM     15  C   UNL     1      -0.191  34.675  49.909  1.00  0.00     0.341 A 
ATOM     16  C   UNL     1      -1.235  34.893  52.519  1.00  0.00     0.010 A 
ATOM     17  O   UNL     1       0.269  35.655  50.767  1.00  0.00    -0.423 OA
ATOM     18  O   UNL     1       0.297  34.585  48.784  1.00  0.00    -0.246 OA
ATOM     19  C   UNL     1      -1.672  35.090  53.844  1.00  0.00     0.011 A 
ATOM     20  C   UNL     1      -0.246  35.755  52.060  1.00  0.00     0.137 A 
ATOM     21  C   UNL     1      -1.141  36.099  54.656  1.00  0.00     0.001 A 
ATOM     22  C   UNL     1       0.298  36.771  52.856  1.00  0.00     0.048 A 
ATOM     23  C   UNL     1      -0.152  36.942  54.160  1.00  0.00     0.004 A 
ATOM     24  O   UNL     1      -2.722  33.059  52.105  1.00  0.00    -0.872 OA
ENDBRANCH   7  13
ENDBRANCH   1   7
BRANCH   3  25
ATOM     25  N   UNL     1      -5.264  36.147  48.366  1.00  0.00     0.062 N 
ATOM     26  O   UNL     1      -6.114  36.573  47.566  1.00  0.00    -0.258 OA
ATOM     27  O   UNL     1      -4.929  36.741  49.401  1.00  0.00    -0.258 OA
ENDBRANCH   3  25
TORSDOF 4
ENDMDL
MODEL 3
REMARK VINA RESULT:    -4.100      2.938      5.871
REMARK INTER + INTRA:          -6.008
REMARK INTER:                  -4.926
REMARK INTRA:                  -1.082
REMARK UNBOUND:                -0.949
REMARK SMILES CC(=O)N[C@@H](c1cccc([N+](=O)[O-])c1)c1c([O-])c2ccccc2oc1=O
REMARK SMILES IDX 6 1 14 2 10 3 9 4 8 5 7 6 5 7 4 8 2 9 3 10 1 11 15 13 16 14
REMARK SMILES IDX 25 15 18 16 24 17 26 18 19 19 23 20 20 21 22 22 21 23 17 24
REMARK SMILES IDX 11 25 12 26 13 27
REMARK H PARENT 4 12
ROOT
ATOM      1  C   UNL     1      -2.808  35.685  51.297  1.00  0.00    -0.014 A 
ATOM      2  C   UNL     1      -1.733  35.924  52.169  1.00  0.00     0.091 A 
ATOM      3  C   UNL     1      -1.960  36.549  53.401  1.00  0.00     0.269 A 
ATOM      4  C   UNL     1      -3.251  36.943  53.779  1.00  0.00     0.085 A 
ATOM      5  C   UNL     1      -4.320  36.712  52.914  1.00  0.00     0.007 A 
ATOM      6  C   UNL     1      -4.099  36.092  51.684  1.00  0.00     0.007 A 
ENDROOT
BRANCH   1   7
ATOM      7  C   UNL     1      -2.568  35.012  49.943  1.00  0.00     0.150 C 
BRANCH   7   8
ATOM      8  N   UNL     1      -3.815  34.953  49.203  1.00  0.00    -0.345 N 
ATOM      9  C   UNL     1      -4.009  35.439  47.947  1.00  0.00     0.217 C 
ATOM     10  O   UNL     1      -3.147  35.992  47.270  1.00  0.00    -0.275 OA
ATOM     11  C   UNL     1      -5.402  35.207  47.429  1.00  0.00     0.114 C 
ATOM     12  H   UNL     1      -4.556  34.456  49.713  1.00  0.00     0.164 HD
ENDBRANCH   7   8
BRANCH   7  13
ATOM     13  C   UNL     1      -1.942  33.614  50.085  1.00  0.00     0.057 A 
ATOM     14  C   UNL     1      -2.412  32.613  50.890  1.00  0.00    -0.085 A 
ATOM     15  C   UNL     1      -0.745  33.485  49.205  1.00  0.00     0.341 A 
ATOM     16  C   UNL     1      -1.605  31.350  50.833  1.00  0.00     0.010 A 
ATOM     17  O   UNL     1      -0.045  32.296  49.226  1.00  0.00    -0.423 OA
ATOM     18  O   UNL     1      -0.365  34.393  48.468  1.00  0.00    -0.246 OA
ATOM     19  C   UNL     1      -1.945  30.214  51.595  1.00  0.00     0.011 A 
ATOM     20  C   UNL     1      -0.477  31.239  50.028  1.00  0.00     0.137 A 
ATOM     21  C   UNL     1      -1.189  29.037  51.546  1.00  0.00     0.001 A 
ATOM     22  C   UNL     1       0.292  30.071  49.965  1.00  0.00     0.048 A 
ATOM     23  C   UNL     1      -0.067  28.965  50.728  1.00  0.00     0.004 A 
ATOM     24  O   UNL     1      -3.427  32.674  51.653  1.00  0.00    -0.872 OA
ENDBRANCH   7  13
ENDBRANCH   1   7
BRANCH   3  25
ATOM     25  N   UNL     1      -0.837  36.797  54.312  1.00  0.00     0.062 N 
ATOM     26  O   UNL     1      -1.082  36.858  55.528  1.00  0.00    -0.258 OA
ATOM     27  O   UNL     1       0.296  36.931  53.827  1.00  0.00    -0.258 OA
ENDBRANCH   3  25
TORSDOF 4
ENDMDL
MODEL 4
REMARK VINA RESULT:    -3.614      2.611      6.227
REMARK INTER + INTRA:          -5.408
REMARK INTER:                  -4.161
REMARK INTRA:                  -1.247
REMARK UNBOUND:                -0.949
REMARK SMILES CC(=O)N[C@@H](c1cccc([N+](=O)[O-])c1)c1c([O-])c2ccccc2oc1=O
REMARK SMILES IDX 6 1 14 2 10 3 9 4 8 5 7 6 5 7 4 8 2 9 3 10 1 11 15 13 16 14
REMARK SMILES IDX 25 15 18 16 24 17 26 18 19 19 23 20 20 21 22 22 21 23 17 24
REMARK SMILES IDX 11 25 12 26 13 27
REMARK H PARENT 4 12
ROOT
ATOM      1  C   UNL     1      -0.495  32.547  50.759  1.00  0.00    -0.014 A 
ATOM      2  C   UNL     1      -0.774  31.506  51.660  1.00  0.00     0.091 A 
ATOM      3  C   UNL     1      -0.516  30.180  51.294  1.00  0.00     0.269 A 
ATOM      4  C   UNL     1       0.019  29.873  50.035  1.00  0.00     0.085 A 
ATOM      5  C   UNL     1       0.293  30.903  49.137  1.00  0.00     0.007 A 
ATOM      6  C   UNL     1       0.035  32.227  49.495  1.00  0.00     0.007 A 
ENDROOT
BRANCH   1   7
ATOM      7  C   UNL     1      -0.784  34.000  51.145  1.00  0.00     0.150 C 
BRANCH   7   8
ATOM      8  N   UNL     1      -1.338  34.045  52.485  1.00  0.00    -0.345 N 
ATOM      9  C   UNL     1      -0.811  34.734  53.534  1.00  0.00     0.217 C 
ATOM     10  O   UNL     1       0.209  35.416  53.480  1.00  0.00    -0.275 OA
ATOM     11  C   UNL     1      -1.623  34.612  54.794  1.00  0.00     0.114 C 
ATOM     12  H   UNL     1      -2.220  33.523  52.567  1.00  0.00     0.164 HD
ENDBRANCH   7   8
BRANCH   7  13
ATOM     13  C   UNL     1      -1.712  34.702  50.139  1.00  0.00     0.057 A 
ATOM     14  C   UNL     1      -3.066  34.529  50.056  1.00  0.00    -0.085 A 
ATOM     15  C   UNL     1      -0.933  35.621  49.261  1.00  0.00     0.341 A 
ATOM     16  C   UNL     1      -3.724  35.340  48.979  1.00  0.00     0.010 A 
ATOM     17  O   UNL     1      -1.610  36.318  48.281  1.00  0.00    -0.423 OA
ATOM     18  O   UNL     1       0.281  35.779  49.380  1.00  0.00    -0.246 OA
ATOM     19  C   UNL     1      -5.114  35.289  48.752  1.00  0.00     0.011 A 
ATOM     20  C   UNL     1      -2.993  36.181  48.149  1.00  0.00     0.137 A 
ATOM     21  C   UNL     1      -5.728  36.043  47.745  1.00  0.00     0.001 A 
ATOM     22  C   UNL     1      -3.587  36.943  47.135  1.00  0.00     0.048 A 
ATOM     23  C   UNL     1      -4.961  36.872  46.933  1.00  0.00     0.004 A 
ATOM     24  O   UNL     1      -3.774  33.762  50.782  1.00  0.00    -0.872 OA
ENDBRANCH   7  13
ENDBRANCH   1   7
BRANCH   3  25
ATOM     25  N   UNL     1      -0.808  29.093  52.236  1.00  0.00     0.062 N 
ATOM     26  O   UNL     1      -1.953  29.031  52.711  1.00  0.00    -0.258 OA
ATOM     27  O   UNL     1       0.098  28.291  52.507  1.00  0.00    -0.258 OA
ENDBRANCH   3  25
TORSDOF 4
ENDMDL
MODEL 5
REMARK VINA RESULT:    -3.563      0.672      2.016
REMARK INTER + INTRA:          -5.346
REMARK INTER:                  -5.107
REMARK INTRA:                  -0.239
REMARK UNBOUND:                -0.949
REMARK SMILES CC(=O)N[C@@H](c1cccc([N+](=O)[O-])c1)c1c([O-])c2ccccc2oc1=O
REMARK SMILES IDX 6 1 14 2 10 3 9 4 8 5 7 6 5 7 4 8 2 9 3 10 1 11 15 13 16 14
REMARK SMILES IDX 25 15 18 16 24 17 26 18 19 19 23 20 20 21 22 22 21 23 17 24
REMARK SMILES IDX 11 25 12 26 13 27
REMARK H PARENT 4 12
ROOT
ATOM      1  C   UNL     1      -2.563  34.506  48.876  1.00  0.00    -0.014 A 
ATOM      2  C   UNL     1      -3.071  33.812  47.766  1.00  0.00     0.091 A 
ATOM      3  C   UNL     1      -4.401  34.005  47.372  1.00  0.00     0.269 A 
ATOM      4  C   UNL     1      -5.237  34.886  48.073  1.00  0.00     0.085 A 
ATOM      5  C   UNL     1      -4.737  35.573  49.178  1.00  0.00     0.007 A 
ATOM      6  C   UNL     1      -3.413  35.381  49.577  1.00  0.00     0.007 A 
ENDROOT
BRANCH   1   7
ATOM      7  C   UNL     1      -1.114  34.293  49.321  1.00  0.00     0.150 C 
BRANCH   7   8
ATOM      8  N   UNL     1      -0.693  32.947  48.977  1.00  0.00    -0.345 N 
ATOM      9  C   UNL     1      -0.041  32.593  47.837  1.00  0.00     0.217 C 
ATOM     10  O   UNL     1       0.282  33.372  46.945  1.00  0.00    -0.275 OA
ATOM     11  C   UNL     1       0.289  31.126  47.772  1.00  0.00     0.114 C 
ATOM     12  H   UNL     1      -0.903  32.265  49.717  1.00  0.00     0.164 HD
ENDBRANCH   7   8
BRANCH   7  13
ATOM     13  C   UNL     1      -0.914  34.569  50.822  1.00  0.00     0.057 A 
ATOM     14  C   UNL     1      -0.512  35.759  51.361  1.00  0.00    -0.085 A 
ATOM     15  C   UNL     1      -1.235  33.354  51.625  1.00  0.00     0.341 A 
ATOM     16  C   UNL     1      -0.399  35.748  52.858  1.00  0.00     0.010 A 
ATOM     17  O   UNL     1      -1.086  33.420  52.995  1.00  0.00    -0.423 OA
ATOM     18  O   UNL     1      -1.624  32.306  51.112  1.00  0.00    -0.246 OA
ATOM     19  C   UNL     1      -0.001  36.888  53.583  1.00  0.00     0.011 A 
ATOM     20  C   UNL     1      -0.678  34.608  53.602  1.00  0.00     0.137 A 
ATOM     21  C   UNL     1       0.109  36.877  54.978  1.00  0.00     0.001 A 
ATOM     22  C   UNL     1      -0.574  34.576  54.998  1.00  0.00     0.048 A 
ATOM     23  C   UNL     1      -0.178  35.716  55.688  1.00  0.00     0.004 A 
ATOM     24  O   UNL     1      -0.232  36.821  50.721  1.00  0.00    -0.872 OA
ENDBRANCH   7  13
ENDBRANCH   1   7
BRANCH   3  25
ATOM     25  N   UNL     1      -4.932  33.280  46.212  1.00  0.00     0.062 N 
ATOM     26  O   UNL     1      -4.201  32.430  45.678  1.00  0.00    -0.258 OA
ATOM     27  O   UNL     1      -6.079  33.548  45.825  1.00  0.00    -0.258 OA
ENDBRANCH   3  25
TORSDOF 4
ENDMDL
MODEL 6
REMARK VINA RESULT:    -3.531      1.920      2.607
REMARK INTER + INTRA:          -5.306
REMARK INTER:                  -6.740
REMARK INTRA:                   1.434
REMARK UNBOUND:                -0.949
REMARK SMILES CC(=O)N[C@@H](c1cccc([N+](=O)[O-])c1)c1c([O-])c2ccccc2oc1=O
REMARK SMILES IDX 6 1 14 2 10 3 9 4 8 5 7 6 5 7 4 8 2 9 3 10 1 11 15 13 16 14
REMARK SMILES IDX 25 15 18 16 24 17 26 18 19 19 23 20 20 21 22 22 21 23 17 24
REMARK SMILES IDX 11 25 12 26 13 27
REMARK H PARENT 4 12
ROOT
ATOM      1  C   UNL     1      -1.388  33.030  48.880  1.00  0.00    -0.014 A 
ATOM      2  C   UNL     1      -2.492  33.804  49.274  1.00  0.00     0.091 A 
ATOM      3  C   UNL     1      -3.574  33.970  48.402  1.00  0.00     0.269 A 
ATOM      4  C   UNL     1      -3.572  33.373  47.133  1.00  0.00     0.085 A 
ATOM      5  C   UNL     1      -2.477  32.608  46.737  1.00  0.00     0.007 A 
ATOM      6  C   UNL     1      -1.393  32.442  47.601  1.00  0.00     0.007 A 
ENDROOT
BRANCH   1   7
ATOM      7  C   UNL     1      -0.195  32.852  49.822  1.00  0.00     0.150 C 
BRANCH   7   8
ATOM      8  N   UNL     1      -0.114  31.467  50.247  1.00  0.00    -0.345 N 
ATOM      9  C   UNL     1      -1.176  30.666  50.532  1.00  0.00     0.217 C 
ATOM     10  O   UNL     1      -2.352  31.014  50.463  1.00  0.00    -0.275 OA
ATOM     11  C   UNL     1      -0.780  29.268  50.922  1.00  0.00     0.114 C 
ATOM     12  H   UNL     1       0.853  31.118  50.276  1.00  0.00     0.164 HD
ENDBRANCH   7   8
BRANCH   7  13
ATOM     13  C   UNL     1      -0.256  33.800  51.033  1.00  0.00     0.057 A 
ATOM     14  C   UNL     1      -0.521  33.424  52.320  1.00  0.00    -0.085 A 
ATOM     15  C   UNL     1       0.032  35.202  50.615  1.00  0.00     0.341 A 
ATOM     16  C   UNL     1      -0.519  34.557  53.304  1.00  0.00     0.010 A 
ATOM     17  O   UNL     1      -0.005  36.190  51.578  1.00  0.00    -0.423 OA
ATOM     18  O   UNL     1       0.298  35.505  49.453  1.00  0.00    -0.246 OA
ATOM     19  C   UNL     1      -0.770  34.353  54.675  1.00  0.00     0.011 A 
ATOM     20  C   UNL     1      -0.271  35.866  52.909  1.00  0.00     0.137 A 
ATOM     21  C   UNL     1      -0.772  35.411  55.592  1.00  0.00     0.001 A 
ATOM     22  C   UNL     1      -0.269  36.938  53.810  1.00  0.00     0.048 A 
ATOM     23  C   UNL     1      -0.521  36.708  55.157  1.00  0.00     0.004 A 
ATOM     24  O   UNL     1      -0.768  32.244  52.725  1.00  0.00    -0.872 OA
ENDBRANCH   7  13
ENDBRANCH   1   7
BRANCH   3  25
ATOM     25  N   UNL     1      -4.728  34.778  48.814  1.00  0.00     0.062 N 
ATOM     26  O   UNL     1      -4.594  35.510  49.808  1.00  0.00    -0.258 OA
ATOM     27  O   UNL     1      -5.773  34.693  48.153  1.00  0.00    -0.258 OA
ENDBRANCH   3  25
TORSDOF 4
ENDMDL
MODEL 7
REMARK VINA RESULT:    -3.513      1.426      2.349
REMARK INTER + INTRA:          -5.284
REMARK INTER:                  -5.092
REMARK INTRA:                  -0.191
REMARK UNBOUND:                -0.949
REMARK SMILES CC(=O)N[C@@H](c1cccc([N+](=O)[O-])c1)c1c([O-])c2ccccc2oc1=O
REMARK SMILES IDX 6 1 14 2 10 3 9 4 8 5 7 6 5 7 4 8 2 9 3 10 1 11 15 13 16 14
REMARK SMILES IDX 25 15 18 16 24 17 26 18 19 19 23 20 20 21 22 22 21 23 17 24
REMARK SMILES IDX 11 25 12 26 13 27
REMARK H PARENT 4 12
ROOT
ATOM      1  C   UNL     1      -1.921  35.165  47.685  1.00  0.00    -0.014 A 
ATOM      2  C   UNL     1      -3.083  34.376  47.662  1.00  0.00     0.091 A 
ATOM      3  C   UNL     1      -4.252  34.875  47.075  1.00  0.00     0.269 A 
ATOM      4  C   UNL     1      -4.281  36.156  46.507  1.00  0.00     0.085 A 
ATOM      5  C   UNL     1      -3.131  36.943  46.533  1.00  0.00     0.007 A 
ATOM      6  C   UNL     1      -1.963  36.453  47.120  1.00  0.00     0.007 A 
ENDROOT
BRANCH   1   7
ATOM      7  C   UNL     1      -0.641  34.633  48.335  1.00  0.00     0.150 C 
BRANCH   7   8
ATOM      8  N   UNL     1      -0.365  33.297  47.841  1.00  0.00    -0.345 N 
ATOM      9  C   UNL     1       0.074  32.994  46.588  1.00  0.00     0.217 C 
ATOM     10  O   UNL     1       0.297  33.820  45.708  1.00  0.00    -0.275 OA
ATOM     11  C   UNL     1       0.298  31.522  46.376  1.00  0.00     0.114 C 
ATOM     12  H   UNL     1      -0.495  32.573  48.560  1.00  0.00     0.164 HD
ENDBRANCH   7   8
BRANCH   7  13
ATOM     13  C   UNL     1      -0.711  34.651  49.872  1.00  0.00     0.057 A 
ATOM     14  C   UNL     1      -0.463  35.738  50.663  1.00  0.00    -0.085 A 
ATOM     15  C   UNL     1      -1.107  33.311  50.393  1.00  0.00     0.341 A 
ATOM     16  C   UNL     1      -0.605  35.472  52.133  1.00  0.00     0.010 A 
ATOM     17  O   UNL     1      -1.196  33.144  51.761  1.00  0.00    -0.423 OA
ATOM     18  O   UNL     1      -1.354  32.360  49.654  1.00  0.00    -0.246 OA
ATOM     19  C   UNL     1      -0.389  36.478  53.096  1.00  0.00     0.011 A 
ATOM     20  C   UNL     1      -0.953  34.217  52.618  1.00  0.00     0.137 A 
ATOM     21  C   UNL     1      -0.517  36.230  54.467  1.00  0.00     0.001 A 
ATOM     22  C   UNL     1      -1.085  33.948  53.986  1.00  0.00     0.048 A 
ATOM     23  C   UNL     1      -0.866  34.960  54.914  1.00  0.00     0.004 A 
ATOM     24  O   UNL     1      -0.128  36.898  50.266  1.00  0.00    -0.872 OA
ENDBRANCH   7  13
ENDBRANCH   1   7
BRANCH   3  25
ATOM     25  N   UNL     1      -5.466  34.051  47.050  1.00  0.00     0.062 N 
ATOM     26  O   UNL     1      -6.562  34.635  47.079  1.00  0.00    -0.258 OA
ATOM     27  O   UNL     1      -5.340  32.818  46.999  1.00  0.00    -0.258 OA
ENDBRANCH   3  25
TORSDOF 4
ENDMDL
MODEL 8
REMARK VINA RESULT:    -3.499      2.963      6.488
REMARK INTER + INTRA:          -5.267
REMARK INTER:                  -4.964
REMARK INTRA:                  -0.303
REMARK UNBOUND:                -0.949
REMARK SMILES CC(=O)N[C@@H](c1cccc([N+](=O)[O-])c1)c1c([O-])c2ccccc2oc1=O
REMARK SMILES IDX 6 1 14 2 10 3 9 4 8 5 7 6 5 7 4 8 2 9 3 10 1 11 15 13 16 14
REMARK SMILES IDX 25 15 18 16 24 17 26 18 19 19 23 20 20 21 22 22 21 23 17 24
REMARK SMILES IDX 11 25 12 26 13 27
REMARK H PARENT 4 12
ROOT
ATOM      1  C   UNL     1      -2.518  33.955  52.118  1.00  0.00    -0.014 A 
ATOM      2  C   UNL     1      -1.501  34.091  53.077  1.00  0.00     0.091 A 
ATOM      3  C   UNL     1      -1.664  34.982  54.144  1.00  0.00     0.269 A 
ATOM      4  C   UNL     1      -2.833  35.745  54.270  1.00  0.00     0.085 A 
ATOM      5  C   UNL     1      -3.843  35.616  53.317  1.00  0.00     0.007 A 
ATOM      6  C   UNL     1      -3.684  34.732  52.249  1.00  0.00     0.007 A 
ENDROOT
BRANCH   1   7
ATOM      7  C   UNL     1      -2.344  32.991  50.941  1.00  0.00     0.150 C 
BRANCH   7   8
ATOM      8  N   UNL     1      -1.442  31.920  51.320  1.00  0.00    -0.345 N 
ATOM      9  C   UNL     1      -1.784  30.609  51.446  1.00  0.00     0.217 C 
ATOM     10  O   UNL     1      -2.910  30.158  51.250  1.00  0.00    -0.275 OA
ATOM     11  C   UNL     1      -0.627  29.726  51.826  1.00  0.00     0.114 C 
ATOM     12  H   UNL     1      -0.475  32.243  51.450  1.00  0.00     0.164 HD
ENDBRANCH   7   8
BRANCH   7  13
ATOM     13  C   UNL     1      -1.854  33.702  49.667  1.00  0.00     0.057 A 
ATOM     14  C   UNL     1      -1.115  34.853  49.637  1.00  0.00    -0.085 A 
ATOM     15  C   UNL     1      -2.283  32.953  48.452  1.00  0.00     0.341 A 
ATOM     16  C   UNL     1      -0.775  35.327  48.254  1.00  0.00     0.010 A 
ATOM     17  O   UNL     1      -1.946  33.467  47.216  1.00  0.00    -0.423 OA
ATOM     18  O   UNL     1      -2.921  31.903  48.512  1.00  0.00    -0.246 OA
ATOM     19  C   UNL     1      -0.017  36.494  48.033  1.00  0.00     0.011 A 
ATOM     20  C   UNL     1      -1.194  34.638  47.122  1.00  0.00     0.137 A 
ATOM     21  C   UNL     1       0.297  36.939  46.744  1.00  0.00     0.001 A 
ATOM     22  C   UNL     1      -0.891  35.067  45.824  1.00  0.00     0.048 A 
ATOM     23  C   UNL     1      -0.142  36.223  45.635  1.00  0.00     0.004 A 
ATOM     24  O   UNL     1      -0.723  35.523  50.643  1.00  0.00    -0.872 OA
ENDBRANCH   7  13
ENDBRANCH   1   7
BRANCH   3  25
ATOM     25  N   UNL     1      -0.602  35.123  55.147  1.00  0.00     0.062 N 
ATOM     26  O   UNL     1       0.293  34.262  55.166  1.00  0.00    -0.258 OA
ATOM     27  O   UNL     1      -0.647  36.091  55.920  1.00  0.00    -0.258 OA
ENDBRANCH   3  25
TORSDOF 4
ENDMDL
MODEL 9
REMARK VINA RESULT:    -3.041      2.686      4.094
REMARK INTER + INTRA:          -4.701
REMARK INTER:                  -5.833
REMARK INTRA:                   1.132
REMARK UNBOUND:                -0.949
REMARK SMILES CC(=O)N[C@@H](c1cccc([N+](=O)[O-])c1)c1c([O-])c2ccccc2oc1=O
REMARK SMILES IDX 6 1 14 2 10 3 9 4 8 5 7 6 5 7 4 8 2 9 3 10 1 11 15 13 16 14
REMARK SMILES IDX 25 15 18 16 24 17 26 18 19 19 23 20 20 21 22 22 21 23 17 24
REMARK SMILES IDX 11 25 12 26 13 27
REMARK H PARENT 4 12
ROOT
ATOM      1  C   UNL     1      -3.277  35.456  48.835  1.00  0.00    -0.014 A 
ATOM      2  C   UNL     1      -3.683  34.459  47.933  1.00  0.00     0.091 A 
ATOM      3  C   UNL     1      -4.901  34.587  47.254  1.00  0.00     0.269 A 
ATOM      4  C   UNL     1      -5.725  35.702  47.463  1.00  0.00     0.085 A 
ATOM      5  C   UNL     1      -5.328  36.690  48.362  1.00  0.00     0.007 A 
ATOM      6  C   UNL     1      -4.117  36.566  49.044  1.00  0.00     0.007 A 
ENDROOT
BRANCH   1   7
ATOM      7  C   UNL     1      -1.953  35.319  49.591  1.00  0.00     0.150 C 
BRANCH   7   8
ATOM      8  N   UNL     1      -0.868  35.813  48.764  1.00  0.00    -0.345 N 
ATOM      9  C   UNL     1      -1.014  36.553  47.631  1.00  0.00     0.217 C 
ATOM     10  O   UNL     1      -2.093  36.905  47.161  1.00  0.00    -0.275 OA
ATOM     11  C   UNL     1       0.296  36.943  47.002  1.00  0.00     0.114 C 
ATOM     12  H   UNL     1       0.058  35.581  49.145  1.00  0.00     0.164 HD
ENDBRANCH   7   8
BRANCH   7  13
ATOM     13  C   UNL     1      -1.685  33.875  50.050  1.00  0.00     0.057 A 
ATOM     14  C   UNL     1      -0.764  33.027  49.499  1.00  0.00    -0.085 A 
ATOM     15  C   UNL     1      -2.563  33.520  51.201  1.00  0.00     0.341 A 
ATOM     16  C   UNL     1      -0.713  31.673  50.144  1.00  0.00     0.010 A 
ATOM     17  O   UNL     1      -2.469  32.247  51.726  1.00  0.00    -0.423 OA
ATOM     18  O   UNL     1      -3.360  34.315  51.695  1.00  0.00    -0.246 OA
ATOM     19  C   UNL     1       0.179  30.674  49.708  1.00  0.00     0.011 A 
ATOM     20  C   UNL     1      -1.547  31.338  51.204  1.00  0.00     0.137 A 
ATOM     21  C   UNL     1       0.223  29.409  50.307  1.00  0.00     0.001 A 
ATOM     22  C   UNL     1      -1.519  30.079  51.816  1.00  0.00     0.048 A 
ATOM     23  C   UNL     1      -0.629  29.111  51.365  1.00  0.00     0.004 A 
ATOM     24  O   UNL     1       0.009  33.284  48.523  1.00  0.00    -0.872 OA
ENDBRANCH   7  13
ENDBRANCH   1   7
BRANCH   3  25
ATOM     25  N   UNL     1      -5.324  33.546  46.311  1.00  0.00     0.062 N 
ATOM     26  O   UNL     1      -6.349  33.756  45.641  1.00  0.00    -0.258 OA
ATOM     27  O   UNL     1      -4.641  32.515  46.226  1.00  0.00    -0.258 OA
ENDBRANCH   3  25
TORSDOF 4
ENDMDL
MODEL 10
REMARK VINA RESULT:    -2.971      2.625      6.609
REMARK INTER + INTRA:          -4.615
REMARK INTER:                  -4.358
REMARK INTRA:                  -0.257
REMARK UNBOUND:                -0.949
REMARK SMILES CC(=O)N[C@@H](c1cccc([N+](=O)[O-])c1)c1c([O-])c2ccccc2oc1=O
REMARK SMILES IDX 6 1 14 2 10 3 9 4 8 5 7 6 5 7 4 8 2 9 3 10 1 11 15 13 16 14
REMARK SMILES IDX 25 15 18 16 24 17 26 18 19 19 23 20 20 21 22 22 21 23 17 24
REMARK SMILES IDX 11 25 12 26 13 27
REMARK H PARENT 4 12
ROOT
ATOM      1  C   UNL     1      -0.834  32.867  50.493  1.00  0.00    -0.014 A 
ATOM      2  C   UNL     1      -1.130  31.812  51.372  1.00  0.00     0.091 A 
ATOM      3  C   UNL     1      -0.710  30.512  51.066  1.00  0.00     0.269 A 
ATOM      4  C   UNL     1       0.005  30.246  49.890  1.00  0.00     0.085 A 
ATOM      5  C   UNL     1       0.297  31.290  49.014  1.00  0.00     0.007 A 
ATOM      6  C   UNL     1      -0.122  32.587  49.312  1.00  0.00     0.007 A 
ENDROOT
BRANCH   1   7
ATOM      7  C   UNL     1      -1.298  34.290  50.813  1.00  0.00     0.150 C 
BRANCH   7   8
ATOM      8  N   UNL     1      -1.884  34.324  52.140  1.00  0.00    -0.345 N 
ATOM      9  C   UNL     1      -1.261  34.768  53.266  1.00  0.00     0.217 C 
ATOM     10  O   UNL     1      -0.115  35.205  53.304  1.00  0.00    -0.275 OA
ATOM     11  C   UNL     1      -2.133  34.705  54.491  1.00  0.00     0.114 C 
ATOM     12  H   UNL     1      -2.862  34.008  52.149  1.00  0.00     0.164 HD
ENDBRANCH   7   8
BRANCH   7  13
ATOM     13  C   UNL     1      -2.279  34.838  49.761  1.00  0.00     0.057 A 
ATOM     14  C   UNL     1      -1.924  35.449  48.590  1.00  0.00    -0.085 A 
ATOM     15  C   UNL     1      -3.688  34.598  50.184  1.00  0.00     0.341 A 
ATOM     16  C   UNL     1      -3.088  35.886  47.750  1.00  0.00     0.010 A 
ATOM     17  O   UNL     1      -4.702  35.049  49.363  1.00  0.00    -0.423 OA
ATOM     18  O   UNL     1      -3.975  34.017  51.230  1.00  0.00    -0.246 OA
ATOM     19  C   UNL     1      -2.910  36.531  46.509  1.00  0.00     0.011 A 
ATOM     20  C   UNL     1      -4.401  35.681  48.156  1.00  0.00     0.137 A 
ATOM     21  C   UNL     1      -3.995  36.943  45.727  1.00  0.00     0.001 A 
ATOM     22  C   UNL     1      -5.500  36.086  47.389  1.00  0.00     0.048 A 
ATOM     23  C   UNL     1      -5.294  36.720  46.169  1.00  0.00     0.004 A 
ATOM     24  O   UNL     1      -0.740  35.672  48.185  1.00  0.00    -0.872 OA
ENDBRANCH   7  13
ENDBRANCH   1   7
BRANCH   3  25
ATOM     25  N   UNL     1      -1.019  29.410  51.985  1.00  0.00     0.062 N 
ATOM     26  O   UNL     1      -0.155  28.532  52.146  1.00  0.00    -0.258 OA
ATOM     27  O   UNL     1      -2.120  29.409  52.554  1.00  0.00    -0.258 OA
ENDBRANCH   3  25
TORSDOF 4
ENDMDL
MODEL 11
REMARK VINA RESULT:    -2.684      2.021      2.475
REMARK INTER + INTRA:          -4.260
REMARK INTER:                  -4.979
REMARK INTRA:                   0.719
REMARK UNBOUND:                -0.949
REMARK SMILES CC(=O)N[C@@H](c1cccc([N+](=O)[O-])c1)c1c([O-])c2ccccc2oc1=O
REMARK SMILES IDX 6 1 14 2 10 3 9 4 8 5 7 6 5 7 4 8 2 9 3 10 1 11 15 13 16 14
REMARK SMILES IDX 25 15 18 16 24 17 26 18 19 19 23 20 20 21 22 22 21 23 17 24
REMARK SMILES IDX 11 25 12 26 13 27
REMARK H PARENT 4 12
ROOT
ATOM      1  C   UNL     1      -3.419  35.627  48.119  1.00  0.00    -0.014 A 
ATOM      2  C   UNL     1      -3.291  34.429  47.397  1.00  0.00     0.091 A 
ATOM      3  C   UNL     1      -4.434  33.790  46.899  1.00  0.00     0.269 A 
ATOM      4  C   UNL     1      -5.709  34.331  47.112  1.00  0.00     0.085 A 
ATOM      5  C   UNL     1      -5.840  35.518  47.832  1.00  0.00     0.007 A 
ATOM      6  C   UNL     1      -4.705  36.157  48.333  1.00  0.00     0.007 A 
ENDROOT
BRANCH   1   7
ATOM      7  C   UNL     1      -2.177  36.327  48.677  1.00  0.00     0.150 C 
BRANCH   7   8
ATOM      8  N   UNL     1      -1.100  36.251  47.707  1.00  0.00    -0.345 N 
ATOM      9  C   UNL     1      -1.206  36.557  46.385  1.00  0.00     0.217 C 
ATOM     10  O   UNL     1      -2.235  36.943  45.838  1.00  0.00    -0.275 OA
ATOM     11  C   UNL     1       0.090  36.407  45.635  1.00  0.00     0.114 C 
ATOM     12  H   UNL     1      -0.205  35.974  48.131  1.00  0.00     0.164 HD
ENDBRANCH   7   8
BRANCH   7  13
ATOM     13  C   UNL     1      -1.740  35.753  50.036  1.00  0.00     0.057 A 
ATOM     14  C   UNL     1      -2.345  36.009  51.235  1.00  0.00    -0.085 A 
ATOM     15  C   UNL     1      -0.563  34.854  49.869  1.00  0.00     0.341 A 
ATOM     16  C   UNL     1      -1.709  35.315  52.403  1.00  0.00     0.010 A 
ATOM     17  O   UNL     1      -0.024  34.268  50.998  1.00  0.00    -0.423 OA
ATOM     18  O   UNL     1      -0.059  34.618  48.772  1.00  0.00    -0.246 OA
ATOM     19  C   UNL     1      -2.202  35.462  53.715  1.00  0.00     0.011 A 
ATOM     20  C   UNL     1      -0.598  34.494  52.249  1.00  0.00     0.137 A 
ATOM     21  C   UNL     1      -1.606  34.819  54.806  1.00  0.00     0.001 A 
ATOM     22  C   UNL     1       0.013  33.842  53.327  1.00  0.00     0.048 A 
ATOM     23  C   UNL     1      -0.495  34.005  54.611  1.00  0.00     0.004 A 
ATOM     24  O   UNL     1      -3.350  36.763  51.426  1.00  0.00    -0.872 OA
ENDBRANCH   7  13
ENDBRANCH   1   7
BRANCH   3  25
ATOM     25  N   UNL     1      -4.300  32.539  46.144  1.00  0.00     0.062 N 
ATOM     26  O   UNL     1      -5.340  31.998  45.733  1.00  0.00    -0.258 OA
ATOM     27  O   UNL     1      -3.163  32.085  45.952  1.00  0.00    -0.258 OA
ENDBRANCH   3  25
TORSDOF 4
ENDMDL
MODEL 12
REMARK VINA RESULT:    -2.244      1.645      2.022
REMARK INTER + INTRA:          -3.718
REMARK INTER:                  -4.815
REMARK INTRA:                   1.097
REMARK UNBOUND:                -0.949
REMARK SMILES CC(=O)N[C@@H](c1cccc([N+](=O)[O-])c1)c1c([O-])c2ccccc2oc1=O
REMARK SMILES IDX 6 1 14 2 10 3 9 4 8 5 7 6 5 7 4 8 2 9 3 10 1 11 15 13 16 14
REMARK SMILES IDX 25 15 18 16 24 17 26 18 19 19 23 20 20 21 22 22 21 23 17 24
REMARK SMILES IDX 11 25 12 26 13 27
REMARK H PARENT 4 12
ROOT
ATOM      1  C   UNL     1      -1.854  33.536  49.567  1.00  0.00    -0.014 A 
ATOM      2  C   UNL     1      -2.012  33.113  48.237  1.00  0.00     0.091 A 
ATOM      3  C   UNL     1      -3.232  33.316  47.581  1.00  0.00     0.269 A 
ATOM      4  C   UNL     1      -4.305  33.937  48.236  1.00  0.00     0.085 A 
ATOM      5  C   UNL     1      -4.153  34.354  49.558  1.00  0.00     0.007 A 
ATOM      6  C   UNL     1      -2.940  34.151  50.217  1.00  0.00     0.007 A 
ENDROOT
BRANCH   1   7
ATOM      7  C   UNL     1      -0.527  33.308  50.296  1.00  0.00     0.150 C 
BRANCH   7   8
ATOM      8  N   UNL     1      -0.353  31.892  50.558  1.00  0.00    -0.345 N 
ATOM      9  C   UNL     1      -1.358  31.004  50.794  1.00  0.00     0.217 C 
ATOM     10  O   UNL     1      -2.552  31.289  50.812  1.00  0.00    -0.275 OA
ATOM     11  C   UNL     1      -0.870  29.597  51.006  1.00  0.00     0.114 C 
ATOM     12  H   UNL     1       0.630  31.597  50.508  1.00  0.00     0.164 HD
ENDBRANCH   7   8
BRANCH   7  13
ATOM     13  C   UNL     1      -0.422  34.128  51.594  1.00  0.00     0.057 A 
ATOM     14  C   UNL     1      -0.691  33.659  52.850  1.00  0.00    -0.085 A 
ATOM     15  C   UNL     1       0.033  35.517  51.301  1.00  0.00     0.341 A 
ATOM     16  C   UNL     1      -0.506  34.677  53.938  1.00  0.00     0.010 A 
ATOM     17  O   UNL     1       0.160  36.398  52.355  1.00  0.00    -0.423 OA
ATOM     18  O   UNL     1       0.298  35.900  50.162  1.00  0.00    -0.246 OA
ATOM     19  C   UNL     1      -0.735  34.368  55.293  1.00  0.00     0.011 A 
ATOM     20  C   UNL     1      -0.101  35.977  53.659  1.00  0.00     0.137 A 
ATOM     21  C   UNL     1      -0.567  35.318  56.307  1.00  0.00     0.001 A 
ATOM     22  C   UNL     1       0.072  36.942  54.659  1.00  0.00     0.048 A 
ATOM     23  C   UNL     1      -0.162  36.610  55.988  1.00  0.00     0.004 A 
ATOM     24  O   UNL     1      -1.077  32.486  53.151  1.00  0.00    -0.872 OA
ENDBRANCH   7  13
ENDBRANCH   1   7
BRANCH   3  25
ATOM     25  N   UNL     1      -3.396  32.875  46.191  1.00  0.00     0.062 N 
ATOM     26  O   UNL     1      -4.486  33.100  45.639  1.00  0.00    -0.258 OA
ATOM     27  O   UNL     1      -2.445  32.306  45.638  1.00  0.00    -0.258 OA
ENDBRANCH   3  25
TORSDOF 4
ENDMDL
MODEL 13
REMARK VINA RESULT:    -2.162      2.697      3.974
REMARK INTER + INTRA:          -3.617
REMARK INTER:                  -5.615
REMARK INTRA:                   1.998
REMARK UNBOUND:                -0.949
REMARK SMILES CC(=O)N[C@@H](c1cccc([N+](=O)[O-])c1)c1c([O-])c2ccccc2oc1=O
REMARK SMILES IDX 6 1 14 2 10 3 9 4 8 5 7 6 5 7 4 8 2 9 3 10 1 11 15 13 16 14
REMARK SMILES IDX 25 15 18 16 24 17 26 18 19 19 23 20 20 21 22 22 21 23 17 24
REMARK SMILES IDX 11 25 12 26 13 27
REMARK H PARENT 4 12
ROOT
ATOM      1  C   UNL     1      -2.892  35.293  48.917  1.00  0.00    -0.014 A 
ATOM      2  C   UNL     1      -3.453  34.412  47.978  1.00  0.00     0.091 A 
ATOM      3  C   UNL     1      -4.784  34.580  47.574  1.00  0.00     0.269 A 
ATOM      4  C   UNL     1      -5.567  35.620  48.095  1.00  0.00     0.085 A 
ATOM      5  C   UNL     1      -5.014  36.493  49.031  1.00  0.00     0.007 A 
ATOM      6  C   UNL     1      -3.689  36.328  49.440  1.00  0.00     0.007 A 
ENDROOT
BRANCH   1   7
ATOM      7  C   UNL     1      -1.442  35.111  49.373  1.00  0.00     0.150 C 
BRANCH   7   8
ATOM      8  N   UNL     1      -0.543  35.614  48.350  1.00  0.00    -0.345 N 
ATOM      9  C   UNL     1      -0.888  36.470  47.350  1.00  0.00     0.217 C 
ATOM     10  O   UNL     1      -2.012  36.935  47.185  1.00  0.00    -0.275 OA
ATOM     11  C   UNL     1       0.266  36.835  46.457  1.00  0.00     0.114 C 
ATOM     12  H   UNL     1       0.423  35.286  48.476  1.00  0.00     0.164 HD
ENDBRANCH   7   8
BRANCH   7  13
ATOM     13  C   UNL     1      -1.116  33.649  49.725  1.00  0.00     0.057 A 
ATOM     14  C   UNL     1      -1.610  32.965  50.802  1.00  0.00    -0.085 A 
ATOM     15  C   UNL     1      -0.191  33.061  48.715  1.00  0.00     0.341 A 
ATOM     16  C   UNL     1      -1.125  31.549  50.904  1.00  0.00     0.010 A 
ATOM     17  O   UNL     1       0.225  31.757  48.892  1.00  0.00    -0.423 OA
ATOM     18  O   UNL     1       0.212  33.693  47.740  1.00  0.00    -0.246 OA
ATOM     19  C   UNL     1      -1.532  30.696  51.948  1.00  0.00     0.011 A 
ATOM     20  C   UNL     1      -0.245  31.010  49.973  1.00  0.00     0.137 A 
ATOM     21  C   UNL     1      -1.077  29.376  52.047  1.00  0.00     0.001 A 
ATOM     22  C   UNL     1       0.223  29.692  50.053  1.00  0.00     0.048 A 
ATOM     23  C   UNL     1      -0.196  28.873  51.095  1.00  0.00     0.004 A 
ATOM     24  O   UNL     1      -2.402  33.421  51.685  1.00  0.00    -0.872 OA
ENDBRANCH   7  13
ENDBRANCH   1   7
BRANCH   3  25
ATOM     25  N   UNL     1      -5.370  33.661  46.592  1.00  0.00     0.062 N 
ATOM     26  O   UNL     1      -5.125  32.449  46.717  1.00  0.00    -0.258 OA
ATOM     27  O   UNL     1      -6.081  34.134  45.694  1.00  0.00    -0.258 OA
ENDBRANCH   3  25
TORSDOF 4
ENDMDL
MODEL 14
REMARK VINA RESULT:    -1.756      2.376      4.398
REMARK INTER + INTRA:          -3.115
REMARK INTER:                  -3.673
REMARK INTRA:                   0.558
REMARK UNBOUND:                -0.949
REMARK SMILES CC(=O)N[C@@H](c1cccc([N+](=O)[O-])c1)c1c([O-])c2ccccc2oc1=O
REMARK SMILES IDX 6 1 14 2 10 3 9 4 8 5 7 6 5 7 4 8 2 9 3 10 1 11 15 13 16 14
REMARK SMILES IDX 25 15 18 16 24 17 26 18 19 19 23 20 20 21 22 22 21 23 17 24
REMARK SMILES IDX 11 25 12 26 13 27
REMARK H PARENT 4 12
ROOT
ATOM      1  C   UNL     1      -3.048  35.367  49.144  1.00  0.00    -0.014 A 
ATOM      2  C   UNL     1      -4.202  34.762  48.619  1.00  0.00     0.091 A 
ATOM      3  C   UNL     1      -4.699  35.170  47.376  1.00  0.00     0.269 A 
ATOM      4  C   UNL     1      -4.059  36.180  46.643  1.00  0.00     0.085 A 
ATOM      5  C   UNL     1      -2.917  36.785  47.163  1.00  0.00     0.007 A 
ATOM      6  C   UNL     1      -2.419  36.385  48.404  1.00  0.00     0.007 A 
ENDROOT
BRANCH   1   7
ATOM      7  C   UNL     1      -2.503  34.935  50.508  1.00  0.00     0.150 C 
BRANCH   7   8
ATOM      8  N   UNL     1      -1.547  35.918  50.983  1.00  0.00    -0.345 N 
ATOM      9  C   UNL     1      -0.720  35.761  52.052  1.00  0.00     0.217 C 
ATOM     10  O   UNL     1      -0.672  34.756  52.757  1.00  0.00    -0.275 OA
ATOM     11  C   UNL     1       0.180  36.943  52.286  1.00  0.00     0.114 C 
ATOM     12  H   UNL     1      -1.520  36.760  50.394  1.00  0.00     0.164 HD
ENDBRANCH   7   8
BRANCH   7  13
ATOM     13  C   UNL     1      -1.880  33.528  50.473  1.00  0.00     0.057 A 
ATOM     14  C   UNL     1      -2.279  32.466  51.236  1.00  0.00    -0.085 A 
ATOM     15  C   UNL     1      -0.777  33.470  49.472  1.00  0.00     0.341 A 
ATOM     16  C   UNL     1      -1.494  31.210  50.997  1.00  0.00     0.010 A 
ATOM     17  O   UNL     1      -0.089  32.282  49.327  1.00  0.00    -0.423 OA
ATOM     18  O   UNL     1      -0.461  34.435  48.778  1.00  0.00    -0.246 OA
ATOM     19  C   UNL     1      -1.769  30.016  51.694  1.00  0.00     0.011 A 
ATOM     20  C   UNL     1      -0.452  31.164  50.079  1.00  0.00     0.137 A 
ATOM     21  C   UNL     1      -1.033  28.845  51.475  1.00  0.00     0.001 A 
ATOM     22  C   UNL     1       0.296  30.003  49.845  1.00  0.00     0.048 A 
ATOM     23  C   UNL     1       0.003  28.839  50.547  1.00  0.00     0.004 A 
ATOM     24  O   UNL     1      -3.214  32.466  52.097  1.00  0.00    -0.872 OA
ENDBRANCH   7  13
ENDBRANCH   1   7
BRANCH   3  25
ATOM     25  N   UNL     1      -5.904  34.537  46.827  1.00  0.00     0.062 N 
ATOM     26  O   UNL     1      -5.759  33.502  46.156  1.00  0.00    -0.258 OA
ATOM     27  O   UNL     1      -7.003  35.061  47.061  1.00  0.00    -0.258 OA
ENDBRANCH   3  25
TORSDOF 4
ENDMDL
