MODEL 1
REMARK VINA RESULT:    -5.254      0.000      0.000
REMARK INTER + INTRA:          -7.602
REMARK INTER:                  -6.482
REMARK INTRA:                  -1.120
REMARK UNBOUND:                -1.120
REMARK SMILES CC(=O)C[C@H](c1ccccc1)c1c([O-])c2ccccc2oc1=O
REMARK SMILES IDX 4 1 2 2 3 3 1 4 5 5 6 6 7 7 11 8 8 9 10 10 9 11 12 12 13 13
REMARK SMILES IDX 22 14 15 15 21 16 23 17 16 18 20 19 17 20 19 21 18 22 14 23
REMARK H PARENT
ROOT
ATOM      1  C   UNL     1      -0.820  32.212  52.073  1.00  0.00     0.088 C 
ENDROOT
BRANCH   1   2
ATOM      2  C   UNL     1      -1.001  31.183  50.978  1.00  0.00     0.130 C 
ATOM      3  O   UNL     1      -0.095  30.955  50.168  1.00  0.00    -0.300 OA
ATOM      4  C   UNL     1      -2.311  30.452  50.879  1.00  0.00     0.087 C 
ENDBRANCH   1   2
BRANCH   1   5
ATOM      5  C   UNL     1      -0.705  33.643  51.508  1.00  0.00     0.063 C 
BRANCH   5   6
ATOM      6  C   UNL     1      -0.706  34.660  52.659  1.00  0.00    -0.040 A 
ATOM      7  C   UNL     1      -1.011  34.269  53.972  1.00  0.00     0.004 A 
ATOM      8  C   UNL     1      -0.407  36.008  52.413  1.00  0.00     0.004 A 
ATOM      9  C   UNL     1      -1.006  35.199  55.012  1.00  0.00     0.000 A 
ATOM     10  C   UNL     1      -0.400  36.938  53.455  1.00  0.00     0.000 A 
ATOM     11  C   UNL     1      -0.697  36.533  54.755  1.00  0.00     0.000 A 
ENDBRANCH   5   6
BRANCH   5  12
ATOM     12  C   UNL     1      -1.654  34.084  50.371  1.00  0.00     0.038 A 
ATOM     13  C   UNL     1      -3.000  34.266  50.500  1.00  0.00    -0.086 A 
ATOM     14  C   UNL     1      -0.912  34.288  49.085  1.00  0.00     0.339 A 
ATOM     15  C   UNL     1      -3.694  34.690  49.236  1.00  0.00     0.010 A 
ATOM     16  O   UNL     1      -1.619  34.710  47.976  1.00  0.00    -0.423 OA
ATOM     17  O   UNL     1       0.297  34.086  48.973  1.00  0.00    -0.246 OA
ATOM     18  C   UNL     1      -5.087  34.905  49.187  1.00  0.00     0.011 A 
ATOM     19  C   UNL     1      -2.998  34.896  48.053  1.00  0.00     0.137 A 
ATOM     20  C   UNL     1      -5.735  35.303  48.012  1.00  0.00     0.001 A 
ATOM     21  C   UNL     1      -3.625  35.295  46.867  1.00  0.00     0.048 A 
ATOM     22  C   UNL     1      -5.001  35.499  46.846  1.00  0.00     0.004 A 
ATOM     23  O   UNL     1      -3.687  34.127  51.556  1.00  0.00    -0.872 OA
ENDBRANCH   5  12
ENDBRANCH   1   5
TORSDOF 4
ENDMDL
MODEL 2
REMARK VINA RESULT:    -5.090      1.466      2.035
REMARK INTER + INTRA:          -7.400
REMARK INTER:                  -6.522
REMARK INTRA:                  -0.878
REMARK UNBOUND:                -1.120
REMARK SMILES CC(=O)C[C@H](c1ccccc1)c1c([O-])c2ccccc2oc1=O
REMARK SMILES IDX 4 1 2 2 3 3 1 4 5 5 6 6 7 7 11 8 8 9 10 10 9 11 12 12 13 13
REMARK SMILES IDX 22 14 15 15 21 16 23 17 16 18 20 19 17 20 19 21 18 22 14 23
REMARK H PARENT
ROOT
ATOM      1  C   UNL     1      -1.603  31.949  51.359  1.00  0.00     0.088 C 
ENDROOT
BRANCH   1   2
ATOM      2  C   UNL     1      -0.803  30.685  51.132  1.00  0.00     0.130 C 
ATOM      3  O   UNL     1       0.102  30.650  50.291  1.00  0.00    -0.300 OA
ATOM      4  C   UNL     1      -1.140  29.460  51.937  1.00  0.00     0.087 C 
ENDBRANCH   1   2
BRANCH   1   5
ATOM      5  C   UNL     1      -1.287  33.030  50.303  1.00  0.00     0.063 C 
BRANCH   5   6
ATOM      6  C   UNL     1      -0.840  34.324  50.999  1.00  0.00    -0.040 A 
ATOM      7  C   UNL     1      -0.271  35.381  50.272  1.00  0.00     0.004 A 
ATOM      8  C   UNL     1      -0.989  34.469  52.387  1.00  0.00     0.004 A 
ATOM      9  C   UNL     1       0.127  36.555  50.914  1.00  0.00     0.000 A 
ATOM     10  C   UNL     1      -0.591  35.644  53.028  1.00  0.00     0.000 A 
ATOM     11  C   UNL     1      -0.035  36.687  52.291  1.00  0.00     0.000 A 
ENDBRANCH   5   6
BRANCH   5  12
ATOM     12  C   UNL     1      -2.316  33.321  49.188  1.00  0.00     0.038 A 
ATOM     13  C   UNL     1      -3.503  33.970  49.368  1.00  0.00    -0.086 A 
ATOM     14  C   UNL     1      -1.856  32.793  47.864  1.00  0.00     0.339 A 
ATOM     15  C   UNL     1      -4.327  34.116  48.120  1.00  0.00     0.010 A 
ATOM     16  O   UNL     1      -2.657  32.997  46.758  1.00  0.00    -0.423 OA
ATOM     17  O   UNL     1      -0.799  32.177  47.722  1.00  0.00    -0.246 OA
ATOM     18  C   UNL     1      -5.589  34.745  48.130  1.00  0.00     0.011 A 
ATOM     19  C   UNL     1      -3.885  33.642  46.892  1.00  0.00     0.137 A 
ATOM     20  C   UNL     1      -6.357  34.886  46.967  1.00  0.00     0.001 A 
ATOM     21  C   UNL     1      -4.636  33.772  45.717  1.00  0.00     0.048 A 
ATOM     22  C   UNL     1      -5.878  34.398  45.756  1.00  0.00     0.004 A 
ATOM     23  O   UNL     1      -3.948  34.453  50.452  1.00  0.00    -0.872 OA
ENDBRANCH   5  12
ENDBRANCH   1   5
TORSDOF 4
ENDMDL
MODEL 3
REMARK VINA RESULT:    -4.863      1.680      5.847
REMARK INTER + INTRA:          -7.120
REMARK INTER:                  -6.161
REMARK INTRA:                  -0.958
REMARK UNBOUND:                -1.120
REMARK SMILES CC(=O)C[C@H](c1ccccc1)c1c([O-])c2ccccc2oc1=O
REMARK SMILES IDX 4 1 2 2 3 3 1 4 5 5 6 6 7 7 11 8 8 9 10 10 9 11 12 12 13 13
REMARK SMILES IDX 22 14 15 15 21 16 23 17 16 18 20 19 17 20 19 21 18 22 14 23
REMARK H PARENT
ROOT
ATOM      1  C   UNL     1      -3.342  36.228  50.445  1.00  0.00     0.088 C 
ENDROOT
BRANCH   1   2
ATOM      2  C   UNL     1      -2.333  36.425  51.556  1.00  0.00     0.130 C 
ATOM      3  O   UNL     1      -1.215  36.898  51.319  1.00  0.00    -0.300 OA
ATOM      4  C   UNL     1      -2.706  36.017  52.955  1.00  0.00     0.087 C 
ENDBRANCH   1   2
BRANCH   1   5
ATOM      5  C   UNL     1      -2.777  35.364  49.298  1.00  0.00     0.063 C 
BRANCH   5   6
ATOM      6  C   UNL     1      -3.833  35.209  48.193  1.00  0.00    -0.040 A 
ATOM      7  C   UNL     1      -5.185  35.002  48.506  1.00  0.00     0.004 A 
ATOM      8  C   UNL     1      -3.458  35.266  46.842  1.00  0.00     0.004 A 
ATOM      9  C   UNL     1      -6.138  34.867  47.495  1.00  0.00     0.000 A 
ATOM     10  C   UNL     1      -4.413  35.133  45.832  1.00  0.00     0.000 A 
ATOM     11  C   UNL     1      -5.752  34.935  46.159  1.00  0.00     0.000 A 
ENDBRANCH   5   6
BRANCH   5  12
ATOM     12  C   UNL     1      -2.112  34.010  49.629  1.00  0.00     0.038 A 
ATOM     13  C   UNL     1      -2.635  33.062  50.460  1.00  0.00    -0.086 A 
ATOM     14  C   UNL     1      -0.798  33.856  48.925  1.00  0.00     0.339 A 
ATOM     15  C   UNL     1      -1.782  31.835  50.620  1.00  0.00     0.010 A 
ATOM     16  O   UNL     1      -0.090  32.683  49.100  1.00  0.00    -0.423 OA
ATOM     17  O   UNL     1      -0.319  34.734  48.206  1.00  0.00    -0.246 OA
ATOM     18  C   UNL     1      -2.164  30.766  51.455  1.00  0.00     0.011 A 
ATOM     19  C   UNL     1      -0.576  31.691  49.949  1.00  0.00     0.137 A 
ATOM     20  C   UNL     1      -1.373  29.620  51.603  1.00  0.00     0.001 A 
ATOM     21  C   UNL     1       0.232  30.554  50.081  1.00  0.00     0.048 A 
ATOM     22  C   UNL     1      -0.170  29.514  50.913  1.00  0.00     0.004 A 
ATOM     23  O   UNL     1      -3.743  33.119  51.074  1.00  0.00    -0.872 OA
ENDBRANCH   5  12
ENDBRANCH   1   5
TORSDOF 4
ENDMDL
MODEL 4
REMARK VINA RESULT:    -4.683      2.127      6.023
REMARK INTER + INTRA:          -6.898
REMARK INTER:                  -5.874
REMARK INTRA:                  -1.024
REMARK UNBOUND:                -1.120
REMARK SMILES CC(=O)C[C@H](c1ccccc1)c1c([O-])c2ccccc2oc1=O
REMARK SMILES IDX 4 1 2 2 3 3 1 4 5 5 6 6 7 7 11 8 8 9 10 10 9 11 12 12 13 13
REMARK SMILES IDX 22 14 15 15 21 16 23 17 16 18 20 19 17 20 19 21 18 22 14 23
REMARK H PARENT
ROOT
ATOM      1  C   UNL     1      -3.557  32.944  47.705  1.00  0.00     0.088 C 
ENDROOT
BRANCH   1   2
ATOM      2  C   UNL     1      -4.791  33.125  46.848  1.00  0.00     0.130 C 
ATOM      3  O   UNL     1      -5.048  32.333  45.933  1.00  0.00    -0.300 OA
ATOM      4  C   UNL     1      -5.694  34.297  47.116  1.00  0.00     0.087 C 
ENDBRANCH   1   2
BRANCH   1   5
ATOM      5  C   UNL     1      -3.051  34.284  48.280  1.00  0.00     0.063 C 
BRANCH   5   6
ATOM      6  C   UNL     1      -1.960  34.863  47.367  1.00  0.00    -0.040 A 
ATOM      7  C   UNL     1      -1.260  34.048  46.463  1.00  0.00     0.004 A 
ATOM      8  C   UNL     1      -1.637  36.227  47.427  1.00  0.00     0.004 A 
ATOM      9  C   UNL     1      -0.274  34.584  45.635  1.00  0.00     0.000 A 
ATOM     10  C   UNL     1      -0.651  36.763  46.596  1.00  0.00     0.000 A 
ATOM     11  C   UNL     1       0.029  35.942  45.699  1.00  0.00     0.000 A 
ENDBRANCH   5   6
BRANCH   5  12
ATOM     12  C   UNL     1      -2.635  34.359  49.765  1.00  0.00     0.038 A 
ATOM     13  C   UNL     1      -1.556  33.726  50.311  1.00  0.00    -0.086 A 
ATOM     14  C   UNL     1      -3.574  35.219  50.556  1.00  0.00     0.339 A 
ATOM     15  C   UNL     1      -1.378  33.957  51.785  1.00  0.00     0.010 A 
ATOM     16  O   UNL     1      -3.322  35.407  51.900  1.00  0.00    -0.423 OA
ATOM     17  O   UNL     1      -4.565  35.756  50.059  1.00  0.00    -0.246 OA
ATOM     18  C   UNL     1      -0.325  33.364  52.510  1.00  0.00     0.011 A 
ATOM     19  C   UNL     1      -2.241  34.771  52.506  1.00  0.00     0.137 A 
ATOM     20  C   UNL     1      -0.155  33.581  53.883  1.00  0.00     0.001 A 
ATOM     21  C   UNL     1      -2.090  35.002  53.879  1.00  0.00     0.048 A 
ATOM     22  C   UNL     1      -1.042  34.404  54.571  1.00  0.00     0.004 A 
ATOM     23  O   UNL     1      -0.715  32.999  49.702  1.00  0.00    -0.872 OA
ENDBRANCH   5  12
ENDBRANCH   1   5
TORSDOF 4
ENDMDL
MODEL 5
REMARK VINA RESULT:    -4.546      0.611      2.277
REMARK INTER + INTRA:          -6.729
REMARK INTER:                  -6.376
REMARK INTRA:                  -0.353
REMARK UNBOUND:                -1.120
REMARK SMILES CC(=O)C[C@H](c1ccccc1)c1c([O-])c2ccccc2oc1=O
REMARK SMILES IDX 4 1 2 2 3 3 1 4 5 5 6 6 7 7 11 8 8 9 10 10 9 11 12 12 13 13
REMARK SMILES IDX 22 14 15 15 21 16 23 17 16 18 20 19 17 20 19 21 18 22 14 23
REMARK H PARENT
ROOT
ATOM      1  C   UNL     1      -0.799  32.273  52.121  1.00  0.00     0.088 C 
ENDROOT
BRANCH   1   2
ATOM      2  C   UNL     1      -1.000  31.285  50.993  1.00  0.00     0.130 C 
ATOM      3  O   UNL     1      -0.111  31.092  50.155  1.00  0.00    -0.300 OA
ATOM      4  C   UNL     1      -2.310  30.553  50.895  1.00  0.00     0.087 C 
ENDBRANCH   1   2
BRANCH   1   5
ATOM      5  C   UNL     1      -0.738  33.729  51.611  1.00  0.00     0.063 C 
BRANCH   5   6
ATOM      6  C   UNL     1      -0.596  34.692  52.799  1.00  0.00    -0.040 A 
ATOM      7  C   UNL     1      -0.444  36.073  52.600  1.00  0.00     0.004 A 
ATOM      8  C   UNL     1      -0.609  34.201  54.114  1.00  0.00     0.004 A 
ATOM      9  C   UNL     1      -0.320  36.940  53.687  1.00  0.00     0.000 A 
ATOM     10  C   UNL     1      -0.486  35.070  55.200  1.00  0.00     0.000 A 
ATOM     11  C   UNL     1      -0.344  36.439  54.986  1.00  0.00     0.000 A 
ENDBRANCH   5   6
BRANCH   5  12
ATOM     12  C   UNL     1      -1.809  34.225  50.614  1.00  0.00     0.038 A 
ATOM     13  C   UNL     1      -1.569  34.586  49.321  1.00  0.00    -0.086 A 
ATOM     14  C   UNL     1      -3.168  34.268  51.245  1.00  0.00     0.339 A 
ATOM     15  C   UNL     1      -2.785  35.041  48.565  1.00  0.00     0.010 A 
ATOM     16  O   UNL     1      -4.240  34.668  50.472  1.00  0.00    -0.423 OA
ATOM     17  O   UNL     1      -3.366  33.974  52.424  1.00  0.00    -0.246 OA
ATOM     18  C   UNL     1      -2.713  35.466  47.223  1.00  0.00     0.011 A 
ATOM     19  C   UNL     1      -4.044  35.060  49.149  1.00  0.00     0.137 A 
ATOM     20  C   UNL     1      -3.846  35.887  46.515  1.00  0.00     0.001 A 
ATOM     21  C   UNL     1      -5.190  35.476  48.461  1.00  0.00     0.048 A 
ATOM     22  C   UNL     1      -5.090  35.892  47.137  1.00  0.00     0.004 A 
ATOM     23  O   UNL     1      -0.452  34.560  48.720  1.00  0.00    -0.872 OA
ENDBRANCH   5  12
ENDBRANCH   1   5
TORSDOF 4
ENDMDL
MODEL 6
REMARK VINA RESULT:    -4.190      1.603      5.940
REMARK INTER + INTRA:          -6.289
REMARK INTER:                  -5.928
REMARK INTRA:                  -0.362
REMARK UNBOUND:                -1.120
REMARK SMILES CC(=O)C[C@H](c1ccccc1)c1c([O-])c2ccccc2oc1=O
REMARK SMILES IDX 4 1 2 2 3 3 1 4 5 5 6 6 7 7 11 8 8 9 10 10 9 11 12 12 13 13
REMARK SMILES IDX 22 14 15 15 21 16 23 17 16 18 20 19 17 20 19 21 18 22 14 23
REMARK H PARENT
ROOT
ATOM      1  C   UNL     1      -2.565  36.805  51.095  1.00  0.00     0.088 C 
ENDROOT
BRANCH   1   2
ATOM      2  C   UNL     1      -1.520  36.793  52.189  1.00  0.00     0.130 C 
ATOM      3  O   UNL     1      -0.322  36.943  51.922  1.00  0.00    -0.300 OA
ATOM      4  C   UNL     1      -1.961  36.576  53.611  1.00  0.00     0.087 C 
ENDBRANCH   1   2
BRANCH   1   5
ATOM      5  C   UNL     1      -2.202  35.850  49.938  1.00  0.00     0.063 C 
BRANCH   5   6
ATOM      6  C   UNL     1      -3.216  36.007  48.795  1.00  0.00    -0.040 A 
ATOM      7  C   UNL     1      -4.444  36.655  48.998  1.00  0.00     0.004 A 
ATOM      8  C   UNL     1      -2.931  35.495  47.520  1.00  0.00     0.004 A 
ATOM      9  C   UNL     1      -5.357  36.796  47.952  1.00  0.00     0.000 A 
ATOM     10  C   UNL     1      -3.844  35.638  46.474  1.00  0.00     0.000 A 
ATOM     11  C   UNL     1      -5.056  36.290  46.690  1.00  0.00     0.000 A 
ENDBRANCH   5   6
BRANCH   5  12
ATOM     12  C   UNL     1      -1.931  34.361  50.245  1.00  0.00     0.038 A 
ATOM     13  C   UNL     1      -0.806  33.678  49.884  1.00  0.00    -0.086 A 
ATOM     14  C   UNL     1      -3.069  33.739  50.995  1.00  0.00     0.339 A 
ATOM     15  C   UNL     1      -0.795  32.233  50.298  1.00  0.00     0.010 A 
ATOM     16  O   UNL     1      -2.967  32.413  51.368  1.00  0.00    -0.423 OA
ATOM     17  O   UNL     1      -4.094  34.357  51.284  1.00  0.00    -0.246 OA
ATOM     18  C   UNL     1       0.283  31.378  49.990  1.00  0.00     0.011 A 
ATOM     19  C   UNL     1      -1.844  31.669  51.010  1.00  0.00     0.137 A 
ATOM     20  C   UNL     1       0.297  30.033  50.378  1.00  0.00     0.001 A 
ATOM     21  C   UNL     1      -1.852  30.327  51.409  1.00  0.00     0.048 A 
ATOM     22  C   UNL     1      -0.775  29.505  51.091  1.00  0.00     0.004 A 
ATOM     23  O   UNL     1       0.198  34.142  49.264  1.00  0.00    -0.872 OA
ENDBRANCH   5  12
ENDBRANCH   1   5
TORSDOF 4
ENDMDL
MODEL 7
REMARK VINA RESULT:    -4.087      1.807      2.194
REMARK INTER + INTRA:          -6.163
REMARK INTER:                  -7.222
REMARK INTRA:                   1.059
REMARK UNBOUND:                -1.120
REMARK SMILES CC(=O)C[C@H](c1ccccc1)c1c([O-])c2ccccc2oc1=O
REMARK SMILES IDX 4 1 2 2 3 3 1 4 5 5 6 6 7 7 11 8 8 9 10 10 9 11 12 12 13 13
REMARK SMILES IDX 22 14 15 15 21 16 23 17 16 18 20 19 17 20 19 21 18 22 14 23
REMARK H PARENT
ROOT
ATOM      1  C   UNL     1      -0.699  31.423  49.967  1.00  0.00     0.088 C 
ENDROOT
BRANCH   1   2
ATOM      2  C   UNL     1      -1.518  30.750  51.047  1.00  0.00     0.130 C 
ATOM      3  O   UNL     1      -2.732  30.965  51.148  1.00  0.00    -0.300 OA
ATOM      4  C   UNL     1      -0.826  29.828  52.013  1.00  0.00     0.087 C 
ENDBRANCH   1   2
BRANCH   1   5
ATOM      5  C   UNL     1      -0.904  32.953  49.955  1.00  0.00     0.063 C 
BRANCH   5   6
ATOM      6  C   UNL     1      -1.167  33.454  51.382  1.00  0.00    -0.040 A 
ATOM      7  C   UNL     1      -0.167  33.403  52.366  1.00  0.00     0.004 A 
ATOM      8  C   UNL     1      -2.425  33.970  51.731  1.00  0.00     0.004 A 
ATOM      9  C   UNL     1      -0.416  33.865  53.660  1.00  0.00     0.000 A 
ATOM     10  C   UNL     1      -2.672  34.433  53.025  1.00  0.00     0.000 A 
ATOM     11  C   UNL     1      -1.666  34.382  53.988  1.00  0.00     0.000 A 
ENDBRANCH   5   6
BRANCH   5  12
ATOM     12  C   UNL     1      -1.900  33.573  48.951  1.00  0.00     0.038 A 
ATOM     13  C   UNL     1      -2.945  32.912  48.374  1.00  0.00    -0.086 A 
ATOM     14  C   UNL     1      -1.578  35.011  48.674  1.00  0.00     0.339 A 
ATOM     15  C   UNL     1      -3.760  33.745  47.424  1.00  0.00     0.010 A 
ATOM     16  O   UNL     1      -2.396  35.715  47.813  1.00  0.00    -0.423 OA
ATOM     17  O   UNL     1      -0.611  35.586  49.174  1.00  0.00    -0.246 OA
ATOM     18  C   UNL     1      -4.865  33.214  46.727  1.00  0.00     0.011 A 
ATOM     19  C   UNL     1      -3.467  35.081  47.188  1.00  0.00     0.137 A 
ATOM     20  C   UNL     1      -5.627  33.988  45.845  1.00  0.00     0.001 A 
ATOM     21  C   UNL     1      -4.216  35.874  46.310  1.00  0.00     0.048 A 
ATOM     22  C   UNL     1      -5.302  35.325  45.635  1.00  0.00     0.004 A 
ATOM     23  O   UNL     1      -3.283  31.707  48.572  1.00  0.00    -0.872 OA
ENDBRANCH   5  12
ENDBRANCH   1   5
TORSDOF 4
ENDMDL
MODEL 8
REMARK VINA RESULT:    -4.035      1.802      5.555
REMARK INTER + INTRA:          -6.099
REMARK INTER:                  -5.206
REMARK INTRA:                  -0.893
REMARK UNBOUND:                -1.120
REMARK SMILES CC(=O)C[C@H](c1ccccc1)c1c([O-])c2ccccc2oc1=O
REMARK SMILES IDX 4 1 2 2 3 3 1 4 5 5 6 6 7 7 11 8 8 9 10 10 9 11 12 12 13 13
REMARK SMILES IDX 22 14 15 15 21 16 23 17 16 18 20 19 17 20 19 21 18 22 14 23
REMARK H PARENT
ROOT
ATOM      1  C   UNL     1      -3.441  36.591  51.505  1.00  0.00     0.088 C 
ENDROOT
BRANCH   1   2
ATOM      2  C   UNL     1      -2.636  36.405  52.772  1.00  0.00     0.130 C 
ATOM      3  O   UNL     1      -1.522  36.927  52.897  1.00  0.00    -0.300 OA
ATOM      4  C   UNL     1      -3.205  35.556  53.876  1.00  0.00     0.087 C 
ENDBRANCH   1   2
BRANCH   1   5
ATOM      5  C   UNL     1      -2.686  36.078  50.260  1.00  0.00     0.063 C 
BRANCH   5   6
ATOM      6  C   UNL     1      -3.557  36.265  49.009  1.00  0.00    -0.040 A 
ATOM      7  C   UNL     1      -3.035  36.059  47.722  1.00  0.00     0.004 A 
ATOM      8  C   UNL     1      -4.899  36.656  49.132  1.00  0.00     0.004 A 
ATOM      9  C   UNL     1      -3.835  36.227  46.592  1.00  0.00     0.000 A 
ATOM     10  C   UNL     1      -5.700  36.823  48.001  1.00  0.00     0.000 A 
ATOM     11  C   UNL     1      -5.168  36.606  46.731  1.00  0.00     0.000 A 
ENDBRANCH   5   6
BRANCH   5  12
ATOM     12  C   UNL     1      -2.045  34.673  50.291  1.00  0.00     0.038 A 
ATOM     13  C   UNL     1      -2.670  33.536  50.712  1.00  0.00    -0.086 A 
ATOM     14  C   UNL     1      -0.629  34.704  49.801  1.00  0.00     0.339 A 
ATOM     15  C   UNL     1      -1.820  32.298  50.649  1.00  0.00     0.010 A 
ATOM     16  O   UNL     1       0.074  33.518  49.744  1.00  0.00    -0.423 OA
ATOM     17  O   UNL     1      -0.065  35.743  49.457  1.00  0.00    -0.246 OA
ATOM     18  C   UNL     1      -2.303  31.041  51.063  1.00  0.00     0.011 A 
ATOM     19  C   UNL     1      -0.516  32.332  50.176  1.00  0.00     0.137 A 
ATOM     20  C   UNL     1      -1.514  29.886  51.003  1.00  0.00     0.001 A 
ATOM     21  C   UNL     1       0.292  31.190  50.105  1.00  0.00     0.048 A 
ATOM     22  C   UNL     1      -0.210  29.960  50.521  1.00  0.00     0.004 A 
ATOM     23  O   UNL     1      -3.865  33.434  51.123  1.00  0.00    -0.872 OA
ENDBRANCH   5  12
ENDBRANCH   1   5
TORSDOF 4
ENDMDL
MODEL 9
REMARK VINA RESULT:    -4.034      2.039      6.168
REMARK INTER + INTRA:          -6.097
REMARK INTER:                  -5.528
REMARK INTRA:                  -0.569
REMARK UNBOUND:                -1.120
REMARK SMILES CC(=O)C[C@H](c1ccccc1)c1c([O-])c2ccccc2oc1=O
REMARK SMILES IDX 4 1 2 2 3 3 1 4 5 5 6 6 7 7 11 8 8 9 10 10 9 11 12 12 13 13
REMARK SMILES IDX 22 14 15 15 21 16 23 17 16 18 20 19 17 20 19 21 18 22 14 23
REMARK H PARENT
ROOT
ATOM      1  C   UNL     1      -4.844  34.799  49.029  1.00  0.00     0.088 C 
ENDROOT
BRANCH   1   2
ATOM      2  C   UNL     1      -5.599  35.339  47.834  1.00  0.00     0.130 C 
ATOM      3  O   UNL     1      -5.884  36.540  47.756  1.00  0.00    -0.300 OA
ATOM      4  C   UNL     1      -6.016  34.386  46.749  1.00  0.00     0.087 C 
ENDBRANCH   1   2
BRANCH   1   5
ATOM      5  C   UNL     1      -3.346  35.171  48.983  1.00  0.00     0.063 C 
BRANCH   5   6
ATOM      6  C   UNL     1      -2.607  34.238  48.013  1.00  0.00    -0.040 A 
ATOM      7  C   UNL     1      -2.292  34.648  46.708  1.00  0.00     0.004 A 
ATOM      8  C   UNL     1      -2.238  32.945  48.417  1.00  0.00     0.004 A 
ATOM      9  C   UNL     1      -1.617  33.794  45.836  1.00  0.00     0.000 A 
ATOM     10  C   UNL     1      -1.561  32.092  47.543  1.00  0.00     0.000 A 
ATOM     11  C   UNL     1      -1.249  32.517  46.254  1.00  0.00     0.000 A 
ENDBRANCH   5   6
BRANCH   5  12
ATOM     12  C   UNL     1      -2.568  35.333  50.307  1.00  0.00     0.038 A 
ATOM     13  C   UNL     1      -2.847  34.669  51.467  1.00  0.00    -0.086 A 
ATOM     14  C   UNL     1      -1.453  36.324  50.171  1.00  0.00     0.339 A 
ATOM     15  C   UNL     1      -1.941  35.014  52.615  1.00  0.00     0.010 A 
ATOM     16  O   UNL     1      -0.645  36.561  51.266  1.00  0.00    -0.423 OA
ATOM     17  O   UNL     1      -1.233  36.943  49.130  1.00  0.00    -0.246 OA
ATOM     18  C   UNL     1      -2.100  34.434  53.890  1.00  0.00     0.011 A 
ATOM     19  C   UNL     1      -0.898  35.919  52.476  1.00  0.00     0.137 A 
ATOM     20  C   UNL     1      -1.255  34.751  54.960  1.00  0.00     0.001 A 
ATOM     21  C   UNL     1      -0.040  36.251  53.532  1.00  0.00     0.048 A 
ATOM     22  C   UNL     1      -0.220  35.664  54.781  1.00  0.00     0.004 A 
ATOM     23  O   UNL     1      -3.761  33.810  51.648  1.00  0.00    -0.872 OA
ENDBRANCH   5  12
ENDBRANCH   1   5
TORSDOF 4
ENDMDL
MODEL 10
REMARK VINA RESULT:    -3.901      2.046      3.855
REMARK INTER + INTRA:          -5.933
REMARK INTER:                  -5.900
REMARK INTRA:                  -0.033
REMARK UNBOUND:                -1.120
REMARK SMILES CC(=O)C[C@H](c1ccccc1)c1c([O-])c2ccccc2oc1=O
REMARK SMILES IDX 4 1 2 2 3 3 1 4 5 5 6 6 7 7 11 8 8 9 10 10 9 11 12 12 13 13
REMARK SMILES IDX 22 14 15 15 21 16 23 17 16 18 20 19 17 20 19 21 18 22 14 23
REMARK H PARENT
ROOT
ATOM      1  C   UNL     1      -4.075  34.688  51.647  1.00  0.00     0.088 C 
ENDROOT
BRANCH   1   2
ATOM      2  C   UNL     1      -4.458  35.326  50.329  1.00  0.00     0.130 C 
ATOM      3  O   UNL     1      -4.934  34.648  49.412  1.00  0.00    -0.300 OA
ATOM      4  C   UNL     1      -4.232  36.802  50.146  1.00  0.00     0.087 C 
ENDBRANCH   1   2
BRANCH   1   5
ATOM      5  C   UNL     1      -2.880  33.722  51.495  1.00  0.00     0.063 C 
BRANCH   5   6
ATOM      6  C   UNL     1      -1.859  33.976  52.614  1.00  0.00    -0.040 A 
ATOM      7  C   UNL     1      -0.674  33.229  52.699  1.00  0.00     0.004 A 
ATOM      8  C   UNL     1      -2.100  34.964  53.581  1.00  0.00     0.004 A 
ATOM      9  C   UNL     1       0.249  33.471  53.717  1.00  0.00     0.000 A 
ATOM     10  C   UNL     1      -1.174  35.206  54.598  1.00  0.00     0.000 A 
ATOM     11  C   UNL     1       0.001  34.461  54.664  1.00  0.00     0.000 A 
ENDBRANCH   5   6
BRANCH   5  12
ATOM     12  C   UNL     1      -2.185  33.591  50.122  1.00  0.00     0.038 A 
ATOM     13  C   UNL     1      -1.527  34.598  49.477  1.00  0.00    -0.086 A 
ATOM     14  C   UNL     1      -2.323  32.206  49.566  1.00  0.00     0.339 A 
ATOM     15  C   UNL     1      -0.945  34.209  48.147  1.00  0.00     0.010 A 
ATOM     16  O   UNL     1      -1.731  31.922  48.351  1.00  0.00    -0.423 OA
ATOM     17  O   UNL     1      -2.950  31.316  50.141  1.00  0.00    -0.246 OA
ATOM     18  C   UNL     1      -0.249  35.133  47.341  1.00  0.00     0.011 A 
ATOM     19  C   UNL     1      -1.060  32.920  47.648  1.00  0.00     0.137 A 
ATOM     20  C   UNL     1       0.298  34.772  46.103  1.00  0.00     0.001 A 
ATOM     21  C   UNL     1      -0.522  32.537  46.413  1.00  0.00     0.048 A 
ATOM     22  C   UNL     1       0.161  33.468  45.637  1.00  0.00     0.004 A 
ATOM     23  O   UNL     1      -1.359  35.783  49.893  1.00  0.00    -0.872 OA
ENDBRANCH   5  12
ENDBRANCH   1   5
TORSDOF 4
ENDMDL
MODEL 11
REMARK VINA RESULT:    -3.638      1.617      5.341
REMARK INTER + INTRA:          -5.608
REMARK INTER:                  -5.172
REMARK INTRA:                  -0.436
REMARK UNBOUND:                -1.120
REMARK SMILES CC(=O)C[C@H](c1ccccc1)c1c([O-])c2ccccc2oc1=O
REMARK SMILES IDX 4 1 2 2 3 3 1 4 5 5 6 6 7 7 11 8 8 9 10 10 9 11 12 12 13 13
REMARK SMILES IDX 22 14 15 15 21 16 23 17 16 18 20 19 17 20 19 21 18 22 14 23
REMARK H PARENT
ROOT
ATOM      1  C   UNL     1      -1.915  31.314  49.529  1.00  0.00     0.088 C 
ENDROOT
BRANCH   1   2
ATOM      2  C   UNL     1      -2.003  30.595  50.857  1.00  0.00     0.130 C 
ATOM      3  O   UNL     1      -3.062  30.571  51.495  1.00  0.00    -0.300 OA
ATOM      4  C   UNL     1      -0.773  29.922  51.400  1.00  0.00     0.087 C 
ENDBRANCH   1   2
BRANCH   1   5
ATOM      5  C   UNL     1      -2.469  32.753  49.613  1.00  0.00     0.063 C 
BRANCH   5   6
ATOM      6  C   UNL     1      -2.464  33.395  48.218  1.00  0.00    -0.040 A 
ATOM      7  C   UNL     1      -2.869  34.726  48.030  1.00  0.00     0.004 A 
ATOM      8  C   UNL     1      -2.058  32.653  47.098  1.00  0.00     0.004 A 
ATOM      9  C   UNL     1      -2.858  35.301  46.759  1.00  0.00     0.000 A 
ATOM     10  C   UNL     1      -2.046  33.231  45.827  1.00  0.00     0.000 A 
ATOM     11  C   UNL     1      -2.443  34.555  45.658  1.00  0.00     0.000 A 
ENDBRANCH   5   6
BRANCH   5  12
ATOM     12  C   UNL     1      -1.900  33.719  50.676  1.00  0.00     0.038 A 
ATOM     13  C   UNL     1      -2.644  34.389  51.603  1.00  0.00    -0.086 A 
ATOM     14  C   UNL     1      -0.411  33.843  50.566  1.00  0.00     0.339 A 
ATOM     15  C   UNL     1      -1.846  35.276  52.518  1.00  0.00     0.010 A 
ATOM     16  O   UNL     1       0.251  34.654  51.466  1.00  0.00    -0.423 OA
ATOM     17  O   UNL     1       0.244  33.260  49.701  1.00  0.00    -0.246 OA
ATOM     18  C   UNL     1      -2.458  36.053  53.522  1.00  0.00     0.011 A 
ATOM     19  C   UNL     1      -0.465  35.370  52.423  1.00  0.00     0.137 A 
ATOM     20  C   UNL     1      -1.717  36.877  54.378  1.00  0.00     0.001 A 
ATOM     21  C   UNL     1       0.297  36.186  53.268  1.00  0.00     0.048 A 
ATOM     22  C   UNL     1      -0.333  36.943  54.251  1.00  0.00     0.004 A 
ATOM     23  O   UNL     1      -3.900  34.321  51.763  1.00  0.00    -0.872 OA
ENDBRANCH   5  12
ENDBRANCH   1   5
TORSDOF 4
ENDMDL
MODEL 12
REMARK VINA RESULT:    -3.599      2.041      5.893
REMARK INTER + INTRA:          -5.560
REMARK INTER:                  -5.583
REMARK INTRA:                   0.023
REMARK UNBOUND:                -1.120
REMARK SMILES CC(=O)C[C@H](c1ccccc1)c1c([O-])c2ccccc2oc1=O
REMARK SMILES IDX 4 1 2 2 3 3 1 4 5 5 6 6 7 7 11 8 8 9 10 10 9 11 12 12 13 13
REMARK SMILES IDX 22 14 15 15 21 16 23 17 16 18 20 19 17 20 19 21 18 22 14 23
REMARK H PARENT
ROOT
ATOM      1  C   UNL     1      -3.629  32.957  47.709  1.00  0.00     0.088 C 
ENDROOT
BRANCH   1   2
ATOM      2  C   UNL     1      -4.906  33.172  46.927  1.00  0.00     0.130 C 
ATOM      3  O   UNL     1      -5.215  32.416  45.998  1.00  0.00    -0.300 OA
ATOM      4  C   UNL     1      -5.789  34.336  47.285  1.00  0.00     0.087 C 
ENDBRANCH   1   2
BRANCH   1   5
ATOM      5  C   UNL     1      -3.138  34.257  48.383  1.00  0.00     0.063 C 
BRANCH   5   6
ATOM      6  C   UNL     1      -2.248  35.043  47.409  1.00  0.00    -0.040 A 
ATOM      7  C   UNL     1      -2.700  36.228  46.808  1.00  0.00     0.004 A 
ATOM      8  C   UNL     1      -0.960  34.583  47.097  1.00  0.00     0.004 A 
ATOM      9  C   UNL     1      -1.883  36.938  45.927  1.00  0.00     0.000 A 
ATOM     10  C   UNL     1      -0.142  35.295  46.218  1.00  0.00     0.000 A 
ATOM     11  C   UNL     1      -0.602  36.473  45.635  1.00  0.00     0.000 A 
ENDBRANCH   5   6
BRANCH   5  12
ATOM     12  C   UNL     1      -2.502  34.185  49.789  1.00  0.00     0.038 A 
ATOM     13  C   UNL     1      -2.572  35.168  50.732  1.00  0.00    -0.086 A 
ATOM     14  C   UNL     1      -1.782  32.888  50.000  1.00  0.00     0.339 A 
ATOM     15  C   UNL     1      -1.860  34.851  52.016  1.00  0.00     0.010 A 
ATOM     16  O   UNL     1      -1.180  32.660  51.222  1.00  0.00    -0.423 OA
ATOM     17  O   UNL     1      -1.696  32.023  49.128  1.00  0.00    -0.246 OA
ATOM     18  C   UNL     1      -1.817  35.763  53.090  1.00  0.00     0.011 A 
ATOM     19  C   UNL     1      -1.212  33.639  52.212  1.00  0.00     0.137 A 
ATOM     20  C   UNL     1      -1.157  35.468  54.289  1.00  0.00     0.001 A 
ATOM     21  C   UNL     1      -0.546  33.322  53.403  1.00  0.00     0.048 A 
ATOM     22  C   UNL     1      -0.519  34.242  54.447  1.00  0.00     0.004 A 
ATOM     23  O   UNL     1      -3.174  36.279  50.627  1.00  0.00    -0.872 OA
ENDBRANCH   5  12
ENDBRANCH   1   5
TORSDOF 4
ENDMDL
MODEL 13
REMARK VINA RESULT:    -3.204      2.065      6.356
REMARK INTER + INTRA:          -5.073
REMARK INTER:                  -5.296
REMARK INTRA:                   0.223
REMARK UNBOUND:                -1.120
REMARK SMILES CC(=O)C[C@H](c1ccccc1)c1c([O-])c2ccccc2oc1=O
REMARK SMILES IDX 4 1 2 2 3 3 1 4 5 5 6 6 7 7 11 8 8 9 10 10 9 11 12 12 13 13
REMARK SMILES IDX 22 14 15 15 21 16 23 17 16 18 20 19 17 20 19 21 18 22 14 23
REMARK H PARENT
ROOT
ATOM      1  C   UNL     1      -4.825  35.095  48.760  1.00  0.00     0.088 C 
ENDROOT
BRANCH   1   2
ATOM      2  C   UNL     1      -5.226  35.566  47.379  1.00  0.00     0.130 C 
ATOM      3  O   UNL     1      -5.009  36.729  47.019  1.00  0.00    -0.300 OA
ATOM      4  C   UNL     1      -5.914  34.600  46.455  1.00  0.00     0.087 C 
ENDBRANCH   1   2
BRANCH   1   5
ATOM      5  C   UNL     1      -3.310  35.254  49.008  1.00  0.00     0.063 C 
BRANCH   5   6
ATOM      6  C   UNL     1      -2.528  34.323  48.069  1.00  0.00    -0.040 A 
ATOM      7  C   UNL     1      -2.498  32.936  48.282  1.00  0.00     0.004 A 
ATOM      8  C   UNL     1      -1.820  34.849  46.978  1.00  0.00     0.004 A 
ATOM      9  C   UNL     1      -1.788  32.097  47.422  1.00  0.00     0.000 A 
ATOM     10  C   UNL     1      -1.112  34.009  46.116  1.00  0.00     0.000 A 
ATOM     11  C   UNL     1      -1.098  32.633  46.337  1.00  0.00     0.000 A 
ENDBRANCH   5   6
BRANCH   5  12
ATOM     12  C   UNL     1      -2.768  35.175  50.452  1.00  0.00     0.038 A 
ATOM     13  C   UNL     1      -1.498  35.499  50.832  1.00  0.00    -0.086 A 
ATOM     14  C   UNL     1      -3.817  34.689  51.406  1.00  0.00     0.339 A 
ATOM     15  C   UNL     1      -1.224  35.326  52.299  1.00  0.00     0.010 A 
ATOM     16  O   UNL     1      -3.494  34.588  52.744  1.00  0.00    -0.423 OA
ATOM     17  O   UNL     1      -4.949  34.366  51.045  1.00  0.00    -0.246 OA
ATOM     18  C   UNL     1       0.041  35.597  52.858  1.00  0.00     0.011 A 
ATOM     19  C   UNL     1      -2.206  34.893  53.180  1.00  0.00     0.137 A 
ATOM     20  C   UNL     1       0.298  35.440  54.226  1.00  0.00     0.001 A 
ATOM     21  C   UNL     1      -1.973  34.730  54.551  1.00  0.00     0.048 A 
ATOM     22  C   UNL     1      -0.714  35.005  55.076  1.00  0.00     0.004 A 
ATOM     23  O   UNL     1      -0.569  35.929  50.085  1.00  0.00    -0.872 OA
ENDBRANCH   5  12
ENDBRANCH   1   5
TORSDOF 4
ENDMDL
MODEL 14
REMARK VINA RESULT:    -2.857      1.974      5.795
REMARK INTER + INTRA:          -4.645
REMARK INTER:                  -5.802
REMARK INTRA:                   1.157
REMARK UNBOUND:                -1.120
REMARK SMILES CC(=O)C[C@H](c1ccccc1)c1c([O-])c2ccccc2oc1=O
REMARK SMILES IDX 4 1 2 2 3 3 1 4 5 5 6 6 7 7 11 8 8 9 10 10 9 11 12 12 13 13
REMARK SMILES IDX 22 14 15 15 21 16 23 17 16 18 20 19 17 20 19 21 18 22 14 23
REMARK H PARENT
ROOT
ATOM      1  C   UNL     1      -2.992  33.137  49.276  1.00  0.00     0.088 C 
ENDROOT
BRANCH   1   2
ATOM      2  C   UNL     1      -2.758  33.392  47.803  1.00  0.00     0.130 C 
ATOM      3  O   UNL     1      -3.530  34.108  47.154  1.00  0.00    -0.300 OA
ATOM      4  C   UNL     1      -1.578  32.743  47.133  1.00  0.00     0.087 C 
ENDBRANCH   1   2
BRANCH   1   5
ATOM      5  C   UNL     1      -1.674  33.138  50.079  1.00  0.00     0.063 C 
BRANCH   5   6
ATOM      6  C   UNL     1      -1.267  31.696  50.415  1.00  0.00    -0.040 A 
ATOM      7  C   UNL     1      -0.128  31.110  49.840  1.00  0.00     0.004 A 
ATOM      8  C   UNL     1      -2.037  30.931  51.304  1.00  0.00     0.004 A 
ATOM      9  C   UNL     1       0.236  29.800  50.154  1.00  0.00     0.000 A 
ATOM     10  C   UNL     1      -1.671  29.621  51.619  1.00  0.00     0.000 A 
ATOM     11  C   UNL     1      -0.534  29.057  51.046  1.00  0.00     0.000 A 
ENDBRANCH   5   6
BRANCH   5  12
ATOM     12  C   UNL     1      -1.543  34.058  51.313  1.00  0.00     0.038 A 
ATOM     13  C   UNL     1      -0.647  33.887  52.327  1.00  0.00    -0.086 A 
ATOM     14  C   UNL     1      -2.537  35.179  51.270  1.00  0.00     0.339 A 
ATOM     15  C   UNL     1      -0.733  34.920  53.416  1.00  0.00     0.010 A 
ATOM     16  O   UNL     1      -2.530  36.106  52.294  1.00  0.00    -0.423 OA
ATOM     17  O   UNL     1      -3.365  35.303  50.367  1.00  0.00    -0.246 OA
ATOM     18  C   UNL     1       0.108  34.882  54.547  1.00  0.00     0.011 A 
ATOM     19  C   UNL     1      -1.643  35.966  53.359  1.00  0.00     0.137 A 
ATOM     20  C   UNL     1       0.032  35.845  55.560  1.00  0.00     0.001 A 
ATOM     21  C   UNL     1      -1.736  36.941  54.361  1.00  0.00     0.048 A 
ATOM     22  C   UNL     1      -0.894  36.879  55.467  1.00  0.00     0.004 A 
ATOM     23  O   UNL     1       0.228  32.974  52.421  1.00  0.00    -0.872 OA
ENDBRANCH   5  12
ENDBRANCH   1   5
TORSDOF 4
ENDMDL
MODEL 15
REMARK VINA RESULT:    -2.699      2.061      3.748
REMARK INTER + INTRA:          -4.450
REMARK INTER:                  -5.175
REMARK INTRA:                   0.725
REMARK UNBOUND:                -1.120
REMARK SMILES CC(=O)C[C@H](c1ccccc1)c1c([O-])c2ccccc2oc1=O
REMARK SMILES IDX 4 1 2 2 3 3 1 4 5 5 6 6 7 7 11 8 8 9 10 10 9 11 12 12 13 13
REMARK SMILES IDX 22 14 15 15 21 16 23 17 16 18 20 19 17 20 19 21 18 22 14 23
REMARK H PARENT
ROOT
ATOM      1  C   UNL     1      -4.075  34.805  51.643  1.00  0.00     0.088 C 
ENDROOT
BRANCH   1   2
ATOM      2  C   UNL     1      -4.480  35.496  50.359  1.00  0.00     0.130 C 
ATOM      3  O   UNL     1      -4.381  36.723  50.241  1.00  0.00    -0.300 OA
ATOM      4  C   UNL     1      -5.025  34.665  49.229  1.00  0.00     0.087 C 
ENDBRANCH   1   2
BRANCH   1   5
ATOM      5  C   UNL     1      -2.846  33.892  51.445  1.00  0.00     0.063 C 
BRANCH   5   6
ATOM      6  C   UNL     1      -1.883  34.051  52.630  1.00  0.00    -0.040 A 
ATOM      7  C   UNL     1      -0.658  33.367  52.667  1.00  0.00     0.004 A 
ATOM      8  C   UNL     1      -2.217  34.886  53.707  1.00  0.00     0.004 A 
ATOM      9  C   UNL     1       0.213  33.522  53.747  1.00  0.00     0.000 A 
ATOM     10  C   UNL     1      -1.344  35.042  54.786  1.00  0.00     0.000 A 
ATOM     11  C   UNL     1      -0.129  34.361  54.804  1.00  0.00     0.000 A 
ENDBRANCH   5   6
BRANCH   5  12
ATOM     12  C   UNL     1      -2.089  33.926  50.099  1.00  0.00     0.038 A 
ATOM     13  C   UNL     1      -2.091  32.924  49.172  1.00  0.00    -0.086 A 
ATOM     14  C   UNL     1      -1.333  35.209  49.927  1.00  0.00     0.339 A 
ATOM     15  C   UNL     1      -1.264  33.206  47.949  1.00  0.00     0.010 A 
ATOM     16  O   UNL     1      -0.624  35.403  48.758  1.00  0.00    -0.423 OA
ATOM     17  O   UNL     1      -1.311  36.090  50.786  1.00  0.00    -0.246 OA
ATOM     18  C   UNL     1      -1.142  32.271  46.902  1.00  0.00     0.011 A 
ATOM     19  C   UNL     1      -0.583  34.405  47.788  1.00  0.00     0.137 A 
ATOM     20  C   UNL     1      -0.375  32.533  45.759  1.00  0.00     0.001 A 
ATOM     21  C   UNL     1       0.189  34.688  46.655  1.00  0.00     0.048 A 
ATOM     22  C   UNL     1       0.293  33.747  45.635  1.00  0.00     0.004 A 
ATOM     23  O   UNL     1      -2.716  31.824  49.245  1.00  0.00    -0.872 OA
ENDBRANCH   5  12
ENDBRANCH   1   5
TORSDOF 4
ENDMDL
