MODEL 1
REMARK VINA RESULT:    -6.702      0.000      0.000
REMARK INTER + INTRA:          -8.433
REMARK INTER:                  -8.269
REMARK INTRA:                  -0.164
REMARK UNBOUND:                -0.164
REMARK SMILES O=c1oc2ccccc2c(O)c1C(c1ccccc1)c1c(O)c2ccccc2oc1=O
REMARK SMILES IDX 13 1 12 2 1 3 2 4 3 5 4 6 10 7 5 8 9 9 6 10 8 11 7 12 11 13
REMARK SMILES IDX 14 15 15 16 19 17 16 18 18 19 17 20 20 21 21 22 30 23 23 24
REMARK SMILES IDX 29 25 31 26 24 27 28 28 25 29 27 30 26 31 22 32
REMARK H PARENT 11 14 22 33
ROOT
ATOM      1  C   UNL     1       5.713  46.360  57.066  1.00  0.00     0.102 C 
ENDROOT
BRANCH   1   2
ATOM      2  C   UNL     1       5.141  47.291  55.990  1.00  0.00     0.092 A 
ATOM      3  O   UNL     1       6.387  46.249  54.248  1.00  0.00    -0.246 OA
ATOM      4  C   UNL     1       5.609  47.132  54.592  1.00  0.00     0.344 A 
ATOM      5  O   UNL     1       5.164  48.055  53.654  1.00  0.00    -0.422 OA
ATOM      6  C   UNL     1       4.202  49.026  53.964  1.00  0.00     0.142 A 
ATOM      7  C   UNL     1       4.266  48.274  56.288  1.00  0.00     0.138 A 
ATOM      8  C   UNL     1       3.753  49.825  52.911  1.00  0.00     0.048 A 
ATOM      9  C   UNL     1       3.707  49.151  55.257  1.00  0.00     0.060 A 
ATOM     10  C   UNL     1       2.763  50.772  53.151  1.00  0.00     0.004 A 
ATOM     11  C   UNL     1       2.690  50.091  55.477  1.00  0.00     0.016 A 
ATOM     12  C   UNL     1       2.226  50.899  54.432  1.00  0.00     0.001 A 
BRANCH   7  13
ATOM     13  O   UNL     1       3.871  48.494  57.594  1.00  0.00    -0.507 OA
ATOM     14  H   UNL     1       2.928  48.275  57.675  1.00  0.00     0.293 HD
ENDBRANCH   7  13
ENDBRANCH   1   2
BRANCH   1  15
ATOM     15  C   UNL     1       6.548  47.080  58.133  1.00  0.00    -0.035 A 
ATOM     16  C   UNL     1       6.964  46.373  59.278  1.00  0.00     0.005 A 
ATOM     17  C   UNL     1       6.917  48.431  58.019  1.00  0.00     0.005 A 
ATOM     18  C   UNL     1       7.737  46.992  60.263  1.00  0.00     0.000 A 
ATOM     19  C   UNL     1       7.689  49.048  59.007  1.00  0.00     0.000 A 
ATOM     20  C   UNL     1       8.101  48.329  60.125  1.00  0.00     0.000 A 
ENDBRANCH   1  15
BRANCH   1  21
ATOM     21  C   UNL     1       4.764  45.257  57.544  1.00  0.00     0.092 A 
ATOM     22  C   UNL     1       4.766  44.042  56.959  1.00  0.00     0.138 A 
ATOM     23  C   UNL     1       3.841  45.518  58.685  1.00  0.00     0.344 A 
ATOM     24  C   UNL     1       3.855  42.974  57.376  1.00  0.00     0.060 A 
ATOM     25  O   UNL     1       3.099  44.437  59.156  1.00  0.00    -0.422 OA
ATOM     26  O   UNL     1       3.737  46.599  59.249  1.00  0.00    -0.246 OA
ATOM     27  C   UNL     1       3.709  41.745  56.715  1.00  0.00     0.016 A 
ATOM     28  C   UNL     1       3.063  43.203  58.493  1.00  0.00     0.142 A 
ATOM     29  C   UNL     1       2.824  40.774  57.200  1.00  0.00     0.001 A 
ATOM     30  C   UNL     1       2.177  42.247  58.991  1.00  0.00     0.048 A 
ATOM     31  C   UNL     1       2.064  41.022  58.342  1.00  0.00     0.004 A 
BRANCH  22  32
ATOM     32  O   UNL     1       5.650  43.758  55.932  1.00  0.00    -0.507 OA
ATOM     33  H   UNL     1       5.304  43.003  55.426  1.00  0.00     0.293 HD
ENDBRANCH  22  32
ENDBRANCH   1  21
TORSDOF 5
ENDMDL
MODEL 2
REMARK VINA RESULT:    -6.641      1.137      6.530
REMARK INTER + INTRA:          -8.358
REMARK INTER:                  -8.101
REMARK INTRA:                  -0.257
REMARK UNBOUND:                -0.164
REMARK SMILES O=c1oc2ccccc2c(O)c1C(c1ccccc1)c1c(O)c2ccccc2oc1=O
REMARK SMILES IDX 13 1 12 2 1 3 2 4 3 5 4 6 10 7 5 8 9 9 6 10 8 11 7 12 11 13
REMARK SMILES IDX 14 15 15 16 19 17 16 18 18 19 17 20 20 21 21 22 30 23 23 24
REMARK SMILES IDX 29 25 31 26 24 27 28 28 25 29 27 30 26 31 22 32
REMARK H PARENT 11 14 22 33
ROOT
ATOM      1  C   UNL     1       4.333  47.297  57.902  1.00  0.00     0.102 C 
ENDROOT
BRANCH   1   2
ATOM      2  C   UNL     1       3.684  45.950  58.243  1.00  0.00     0.092 A 
ATOM      3  O   UNL     1       1.889  46.974  59.430  1.00  0.00    -0.246 OA
ATOM      4  C   UNL     1       2.448  45.946  59.064  1.00  0.00     0.344 A 
ATOM      5  O   UNL     1       1.938  44.714  59.456  1.00  0.00    -0.422 OA
ATOM      6  C   UNL     1       2.476  43.505  58.992  1.00  0.00     0.142 A 
ATOM      7  C   UNL     1       4.229  44.777  57.861  1.00  0.00     0.138 A 
ATOM      8  C   UNL     1       1.810  42.337  59.366  1.00  0.00     0.048 A 
ATOM      9  C   UNL     1       3.599  43.492  58.173  1.00  0.00     0.060 A 
ATOM     10  C   UNL     1       2.270  41.112  58.894  1.00  0.00     0.004 A 
ATOM     11  C   UNL     1       4.033  42.253  57.683  1.00  0.00     0.016 A 
ATOM     12  C   UNL     1       3.377  41.070  58.046  1.00  0.00     0.001 A 
BRANCH   7  13
ATOM     13  O   UNL     1       5.421  44.749  57.161  1.00  0.00    -0.507 OA
ATOM     14  H   UNL     1       5.251  44.397  56.272  1.00  0.00     0.293 HD
ENDBRANCH   7  13
ENDBRANCH   1   2
BRANCH   1  15
ATOM     15  C   UNL     1       5.679  47.535  58.600  1.00  0.00    -0.035 A 
ATOM     16  C   UNL     1       6.390  48.722  58.342  1.00  0.00     0.005 A 
ATOM     17  C   UNL     1       6.240  46.608  59.493  1.00  0.00     0.005 A 
ATOM     18  C   UNL     1       7.611  48.979  58.970  1.00  0.00     0.000 A 
ATOM     19  C   UNL     1       7.463  46.866  60.119  1.00  0.00     0.000 A 
ATOM     20  C   UNL     1       8.146  48.051  59.859  1.00  0.00     0.000 A 
ENDBRANCH   1  15
BRANCH   1  21
ATOM     21  C   UNL     1       4.218  47.721  56.435  1.00  0.00     0.092 A 
ATOM     22  C   UNL     1       3.113  48.345  55.980  1.00  0.00     0.138 A 
ATOM     23  C   UNL     1       5.351  47.464  55.500  1.00  0.00     0.344 A 
ATOM     24  C   UNL     1       2.962  48.742  54.578  1.00  0.00     0.060 A 
ATOM     25  O   UNL     1       5.239  47.990  54.215  1.00  0.00    -0.422 OA
ATOM     26  O   UNL     1       6.373  46.867  55.810  1.00  0.00    -0.246 OA
ATOM     27  C   UNL     1       1.785  49.259  54.017  1.00  0.00     0.016 A 
ATOM     28  C   UNL     1       4.056  48.573  53.740  1.00  0.00     0.142 A 
ATOM     29  C   UNL     1       1.741  49.630  52.666  1.00  0.00     0.001 A 
ATOM     30  C   UNL     1       4.031  48.938  52.394  1.00  0.00     0.048 A 
ATOM     31  C   UNL     1       2.866  49.476  51.858  1.00  0.00     0.004 A 
BRANCH  22  32
ATOM     32  O   UNL     1       2.069  48.642  56.840  1.00  0.00    -0.507 OA
ATOM     33  H   UNL     1       2.426  48.731  57.740  1.00  0.00     0.293 HD
ENDBRANCH  22  32
ENDBRANCH   1  21
TORSDOF 5
ENDMDL
MODEL 3
REMARK VINA RESULT:    -6.445      2.678      5.654
REMARK INTER + INTRA:          -8.116
REMARK INTER:                  -8.315
REMARK INTRA:                   0.199
REMARK UNBOUND:                -0.164
REMARK SMILES O=c1oc2ccccc2c(O)c1C(c1ccccc1)c1c(O)c2ccccc2oc1=O
REMARK SMILES IDX 13 1 12 2 1 3 2 4 3 5 4 6 10 7 5 8 9 9 6 10 8 11 7 12 11 13
REMARK SMILES IDX 14 15 15 16 19 17 16 18 18 19 17 20 20 21 21 22 30 23 23 24
REMARK SMILES IDX 29 25 31 26 24 27 28 28 25 29 27 30 26 31 22 32
REMARK H PARENT 11 14 22 33
ROOT
ATOM      1  C   UNL     1       5.104  46.291  58.484  1.00  0.00     0.102 C 
ENDROOT
BRANCH   1   2
ATOM      2  C   UNL     1       5.273  45.631  57.110  1.00  0.00     0.092 A 
ATOM      3  O   UNL     1       6.254  47.581  56.154  1.00  0.00    -0.246 OA
ATOM      4  C   UNL     1       5.850  46.433  56.003  1.00  0.00     0.344 A 
ATOM      5  O   UNL     1       5.892  45.854  54.741  1.00  0.00    -0.422 OA
ATOM      6  C   UNL     1       5.536  44.515  54.524  1.00  0.00     0.142 A 
ATOM      7  C   UNL     1       4.871  44.366  56.871  1.00  0.00     0.138 A 
ATOM      8  C   UNL     1       5.725  44.015  53.235  1.00  0.00     0.048 A 
ATOM      9  C   UNL     1       5.049  43.731  55.564  1.00  0.00     0.060 A 
ATOM     10  C   UNL     1       5.435  42.680  52.975  1.00  0.00     0.004 A 
ATOM     11  C   UNL     1       4.788  42.380  55.292  1.00  0.00     0.016 A 
ATOM     12  C   UNL     1       4.974  41.860  54.005  1.00  0.00     0.001 A 
BRANCH   7  13
ATOM     13  O   UNL     1       4.261  43.621  57.863  1.00  0.00    -0.507 OA
ATOM     14  H   UNL     1       3.298  43.710  57.771  1.00  0.00     0.293 HD
ENDBRANCH   7  13
ENDBRANCH   1   2
BRANCH   1  15
ATOM     15  C   UNL     1       6.421  46.489  59.247  1.00  0.00    -0.035 A 
ATOM     16  C   UNL     1       7.604  45.916  58.742  1.00  0.00     0.005 A 
ATOM     17  C   UNL     1       6.498  47.221  60.443  1.00  0.00     0.005 A 
ATOM     18  C   UNL     1       8.823  46.086  59.401  1.00  0.00     0.000 A 
ATOM     19  C   UNL     1       7.718  47.388  61.102  1.00  0.00     0.000 A 
ATOM     20  C   UNL     1       8.879  46.824  60.581  1.00  0.00     0.000 A 
ENDBRANCH   1  15
BRANCH   1  21
ATOM     21  C   UNL     1       4.084  47.433  58.536  1.00  0.00     0.092 A 
ATOM     22  C   UNL     1       4.484  48.719  58.490  1.00  0.00     0.138 A 
ATOM     23  C   UNL     1       2.628  47.121  58.614  1.00  0.00     0.344 A 
ATOM     24  C   UNL     1       3.536  49.834  58.562  1.00  0.00     0.060 A 
ATOM     25  O   UNL     1       1.748  48.196  58.526  1.00  0.00    -0.422 OA
ATOM     26  O   UNL     1       2.174  45.988  58.704  1.00  0.00    -0.246 OA
ATOM     27  C   UNL     1       3.899  51.185  58.665  1.00  0.00     0.016 A 
ATOM     28  C   UNL     1       2.182  49.529  58.548  1.00  0.00     0.142 A 
ATOM     29  C   UNL     1       2.919  52.186  58.709  1.00  0.00     0.001 A 
ATOM     30  C   UNL     1       1.193  50.512  58.589  1.00  0.00     0.048 A 
ATOM     31  C   UNL     1       1.568  51.849  58.663  1.00  0.00     0.004 A 
BRANCH  22  32
ATOM     32  O   UNL     1       5.826  49.034  58.364  1.00  0.00    -0.507 OA
ATOM     33  H   UNL     1       6.223  48.440  57.704  1.00  0.00     0.293 HD
ENDBRANCH  22  32
ENDBRANCH   1  21
TORSDOF 5
ENDMDL
MODEL 4
REMARK VINA RESULT:    -6.332      0.702      2.066
REMARK INTER + INTRA:          -7.977
REMARK INTER:                  -8.367
REMARK INTRA:                   0.390
REMARK UNBOUND:                -0.164
REMARK SMILES O=c1oc2ccccc2c(O)c1C(c1ccccc1)c1c(O)c2ccccc2oc1=O
REMARK SMILES IDX 13 1 12 2 1 3 2 4 3 5 4 6 10 7 5 8 9 9 6 10 8 11 7 12 11 13
REMARK SMILES IDX 14 15 15 16 19 17 16 18 18 19 17 20 20 21 21 22 30 23 23 24
REMARK SMILES IDX 29 25 31 26 24 27 28 28 25 29 27 30 26 31 22 32
REMARK H PARENT 11 14 22 33
ROOT
ATOM      1  C   UNL     1       5.699  46.356  57.153  1.00  0.00     0.102 C 
ENDROOT
BRANCH   1   2
ATOM      2  C   UNL     1       5.122  47.325  56.113  1.00  0.00     0.092 A 
ATOM      3  O   UNL     1       3.939  48.581  57.757  1.00  0.00    -0.246 OA
ATOM      4  C   UNL     1       4.206  48.397  56.575  1.00  0.00     0.344 A 
ATOM      5  O   UNL     1       3.608  49.194  55.606  1.00  0.00    -0.422 OA
ATOM      6  C   UNL     1       3.946  49.097  54.249  1.00  0.00     0.142 A 
ATOM      7  C   UNL     1       5.385  47.199  54.797  1.00  0.00     0.138 A 
ATOM      8  C   UNL     1       3.359  50.025  53.388  1.00  0.00     0.048 A 
ATOM      9  C   UNL     1       4.847  48.136  53.807  1.00  0.00     0.060 A 
ATOM     10  C   UNL     1       3.696  50.007  52.038  1.00  0.00     0.004 A 
ATOM     11  C   UNL     1       5.198  48.148  52.450  1.00  0.00     0.016 A 
ATOM     12  C   UNL     1       4.622  49.074  51.571  1.00  0.00     0.001 A 
BRANCH   7  13
ATOM     13  O   UNL     1       6.173  46.164  54.331  1.00  0.00    -0.507 OA
ATOM     14  H   UNL     1       6.013  45.379  54.881  1.00  0.00     0.293 HD
ENDBRANCH   7  13
ENDBRANCH   1   2
BRANCH   1  15
ATOM     15  C   UNL     1       6.555  47.035  58.230  1.00  0.00    -0.035 A 
ATOM     16  C   UNL     1       6.962  48.370  58.048  1.00  0.00     0.005 A 
ATOM     17  C   UNL     1       6.959  46.374  59.402  1.00  0.00     0.005 A 
ATOM     18  C   UNL     1       7.731  49.025  59.013  1.00  0.00     0.000 A 
ATOM     19  C   UNL     1       7.729  47.030  60.365  1.00  0.00     0.000 A 
ATOM     20  C   UNL     1       8.112  48.355  60.172  1.00  0.00     0.000 A 
ENDBRANCH   1  15
BRANCH   1  21
ATOM     21  C   UNL     1       4.745  45.248  57.609  1.00  0.00     0.092 A 
ATOM     22  C   UNL     1       4.760  44.036  57.017  1.00  0.00     0.138 A 
ATOM     23  C   UNL     1       3.804  45.499  58.737  1.00  0.00     0.344 A 
ATOM     24  C   UNL     1       3.845  42.963  57.414  1.00  0.00     0.060 A 
ATOM     25  O   UNL     1       3.057  44.414  59.190  1.00  0.00    -0.422 OA
ATOM     26  O   UNL     1       3.688  46.578  59.305  1.00  0.00    -0.246 OA
ATOM     27  C   UNL     1       3.713  41.738  56.744  1.00  0.00     0.016 A 
ATOM     28  C   UNL     1       3.035  43.184  58.519  1.00  0.00     0.142 A 
ATOM     29  C   UNL     1       2.822  40.762  57.209  1.00  0.00     0.001 A 
ATOM     30  C   UNL     1       2.144  42.223  58.998  1.00  0.00     0.048 A 
ATOM     31  C   UNL     1       2.044  41.002  58.340  1.00  0.00     0.004 A 
BRANCH  22  32
ATOM     32  O   UNL     1       5.661  43.761  56.002  1.00  0.00    -0.507 OA
ATOM     33  H   UNL     1       5.920  42.825  56.065  1.00  0.00     0.293 HD
ENDBRANCH  22  32
ENDBRANCH   1  21
TORSDOF 5
ENDMDL
MODEL 5
REMARK VINA RESULT:    -6.313      2.007      3.089
REMARK INTER + INTRA:          -7.953
REMARK INTER:                  -7.616
REMARK INTRA:                  -0.337
REMARK UNBOUND:                -0.164
REMARK SMILES O=c1oc2ccccc2c(O)c1C(c1ccccc1)c1c(O)c2ccccc2oc1=O
REMARK SMILES IDX 13 1 12 2 1 3 2 4 3 5 4 6 10 7 5 8 9 9 6 10 8 11 7 12 11 13
REMARK SMILES IDX 14 15 15 16 19 17 16 18 18 19 17 20 20 21 21 22 30 23 23 24
REMARK SMILES IDX 29 25 31 26 24 27 28 28 25 29 27 30 26 31 22 32
REMARK H PARENT 11 14 22 33
ROOT
ATOM      1  C   UNL     1       5.508  47.248  56.689  1.00  0.00     0.102 C 
ENDROOT
BRANCH   1   2
ATOM      2  C   UNL     1       4.322  48.220  56.666  1.00  0.00     0.092 A 
ATOM      3  O   UNL     1       4.617  48.723  54.356  1.00  0.00    -0.246 OA
ATOM      4  C   UNL     1       4.008  48.927  55.400  1.00  0.00     0.344 A 
ATOM      5  O   UNL     1       3.002  49.885  55.429  1.00  0.00    -0.422 OA
ATOM      6  C   UNL     1       2.207  50.095  56.564  1.00  0.00     0.142 A 
ATOM      7  C   UNL     1       3.593  48.483  57.769  1.00  0.00     0.138 A 
ATOM      8  C   UNL     1       1.157  51.005  56.436  1.00  0.00     0.048 A 
ATOM      9  C   UNL     1       2.449  49.398  57.742  1.00  0.00     0.060 A 
ATOM     10  C   UNL     1       0.305  51.216  57.516  1.00  0.00     0.004 A 
ATOM     11  C   UNL     1       1.566  49.601  58.812  1.00  0.00     0.016 A 
ATOM     12  C   UNL     1       0.505  50.508  58.701  1.00  0.00     0.001 A 
BRANCH   7  13
ATOM     13  O   UNL     1       3.910  47.896  58.980  1.00  0.00    -0.507 OA
ATOM     14  H   UNL     1       4.479  48.504  59.481  1.00  0.00     0.293 HD
ENDBRANCH   7  13
ENDBRANCH   1   2
BRANCH   1  15
ATOM     15  C   UNL     1       6.445  47.437  57.890  1.00  0.00    -0.035 A 
ATOM     16  C   UNL     1       6.943  48.721  58.182  1.00  0.00     0.005 A 
ATOM     17  C   UNL     1       6.834  46.371  58.718  1.00  0.00     0.005 A 
ATOM     18  C   UNL     1       7.786  48.933  59.276  1.00  0.00     0.000 A 
ATOM     19  C   UNL     1       7.680  46.585  59.810  1.00  0.00     0.000 A 
ATOM     20  C   UNL     1       8.152  47.864  60.090  1.00  0.00     0.000 A 
ENDBRANCH   1  15
BRANCH   1  21
ATOM     21  C   UNL     1       5.180  45.812  56.272  1.00  0.00     0.092 A 
ATOM     22  C   UNL     1       5.585  45.329  55.080  1.00  0.00     0.138 A 
ATOM     23  C   UNL     1       4.426  44.925  57.204  1.00  0.00     0.344 A 
ATOM     24  C   UNL     1       5.267  43.967  54.642  1.00  0.00     0.060 A 
ATOM     25  O   UNL     1       4.274  43.594  56.823  1.00  0.00    -0.422 OA
ATOM     26  O   UNL     1       3.981  45.287  58.285  1.00  0.00    -0.246 OA
ATOM     27  C   UNL     1       5.532  43.458  53.362  1.00  0.00     0.016 A 
ATOM     28  C   UNL     1       4.639  43.128  55.552  1.00  0.00     0.142 A 
ATOM     29  C   UNL     1       5.208  42.134  53.039  1.00  0.00     0.001 A 
ATOM     30  C   UNL     1       4.312  41.806  55.249  1.00  0.00     0.048 A 
ATOM     31  C   UNL     1       4.606  41.307  53.985  1.00  0.00     0.004 A 
BRANCH  22  32
ATOM     32  O   UNL     1       6.332  46.115  54.220  1.00  0.00    -0.507 OA
ATOM     33  H   UNL     1       6.384  45.667  53.358  1.00  0.00     0.293 HD
ENDBRANCH  22  32
ENDBRANCH   1  21
TORSDOF 5
ENDMDL
MODEL 6
REMARK VINA RESULT:    -6.289      1.494      6.269
REMARK INTER + INTRA:          -7.923
REMARK INTER:                  -8.123
REMARK INTRA:                   0.200
REMARK UNBOUND:                -0.164
REMARK SMILES O=c1oc2ccccc2c(O)c1C(c1ccccc1)c1c(O)c2ccccc2oc1=O
REMARK SMILES IDX 13 1 12 2 1 3 2 4 3 5 4 6 10 7 5 8 9 9 6 10 8 11 7 12 11 13
REMARK SMILES IDX 14 15 15 16 19 17 16 18 18 19 17 20 20 21 21 22 30 23 23 24
REMARK SMILES IDX 29 25 31 26 24 27 28 28 25 29 27 30 26 31 22 32
REMARK H PARENT 11 14 22 33
ROOT
ATOM      1  C   UNL     1       4.457  46.573  57.409  1.00  0.00     0.102 C 
ENDROOT
BRANCH   1   2
ATOM      2  C   UNL     1       4.130  45.099  57.678  1.00  0.00     0.092 A 
ATOM      3  O   UNL     1       5.833  44.322  56.204  1.00  0.00    -0.246 OA
ATOM      4  C   UNL     1       4.904  44.057  56.959  1.00  0.00     0.344 A 
ATOM      5  O   UNL     1       4.519  42.733  57.132  1.00  0.00    -0.422 OA
ATOM      6  C   UNL     1       3.529  42.361  58.053  1.00  0.00     0.142 A 
ATOM      7  C   UNL     1       3.135  44.729  58.509  1.00  0.00     0.138 A 
ATOM      8  C   UNL     1       3.308  40.993  58.217  1.00  0.00     0.048 A 
ATOM      9  C   UNL     1       2.835  43.321  58.780  1.00  0.00     0.060 A 
ATOM     10  C   UNL     1       2.373  40.564  59.154  1.00  0.00     0.004 A 
ATOM     11  C   UNL     1       1.916  42.872  59.739  1.00  0.00     0.016 A 
ATOM     12  C   UNL     1       1.683  41.503  59.920  1.00  0.00     0.001 A 
BRANCH   7  13
ATOM     13  O   UNL     1       2.349  45.678  59.135  1.00  0.00    -0.507 OA
ATOM     14  H   UNL     1       2.296  45.465  60.081  1.00  0.00     0.293 HD
ENDBRANCH   7  13
ENDBRANCH   1   2
BRANCH   1  15
ATOM     15  C   UNL     1       5.687  47.088  58.169  1.00  0.00    -0.035 A 
ATOM     16  C   UNL     1       6.034  48.449  58.079  1.00  0.00     0.005 A 
ATOM     17  C   UNL     1       6.492  46.250  58.958  1.00  0.00     0.005 A 
ATOM     18  C   UNL     1       7.138  48.956  58.768  1.00  0.00     0.000 A 
ATOM     19  C   UNL     1       7.597  46.759  59.645  1.00  0.00     0.000 A 
ATOM     20  C   UNL     1       7.918  48.110  59.552  1.00  0.00     0.000 A 
ENDBRANCH   1  15
BRANCH   1  21
ATOM     21  C   UNL     1       4.294  47.020  55.953  1.00  0.00     0.092 A 
ATOM     22  C   UNL     1       3.069  47.200  55.419  1.00  0.00     0.138 A 
ATOM     23  C   UNL     1       5.502  47.283  55.120  1.00  0.00     0.344 A 
ATOM     24  C   UNL     1       2.879  47.603  54.023  1.00  0.00     0.060 A 
ATOM     25  O   UNL     1       5.289  47.812  53.849  1.00  0.00    -0.422 OA
ATOM     26  O   UNL     1       6.651  47.106  55.503  1.00  0.00    -0.246 OA
ATOM     27  C   UNL     1       1.638  47.665  53.372  1.00  0.00     0.016 A 
ATOM     28  C   UNL     1       4.010  47.926  53.286  1.00  0.00     0.142 A 
ATOM     29  C   UNL     1       1.552  48.081  52.037  1.00  0.00     0.001 A 
ATOM     30  C   UNL     1       3.943  48.345  51.957  1.00  0.00     0.048 A 
ATOM     31  C   UNL     1       2.703  48.428  51.333  1.00  0.00     0.004 A 
BRANCH  22  32
ATOM     32  O   UNL     1       1.933  47.012  56.187  1.00  0.00    -0.507 OA
ATOM     33  H   UNL     1       2.188  46.569  57.014  1.00  0.00     0.293 HD
ENDBRANCH  22  32
ENDBRANCH   1  21
TORSDOF 5
ENDMDL
MODEL 7
REMARK VINA RESULT:    -6.234      1.623      6.289
REMARK INTER + INTRA:          -7.856
REMARK INTER:                  -8.025
REMARK INTRA:                   0.169
REMARK UNBOUND:                -0.164
REMARK SMILES O=c1oc2ccccc2c(O)c1C(c1ccccc1)c1c(O)c2ccccc2oc1=O
REMARK SMILES IDX 13 1 12 2 1 3 2 4 3 5 4 6 10 7 5 8 9 9 6 10 8 11 7 12 11 13
REMARK SMILES IDX 14 15 15 16 19 17 16 18 18 19 17 20 20 21 21 22 30 23 23 24
REMARK SMILES IDX 29 25 31 26 24 27 28 28 25 29 27 30 26 31 22 32
REMARK H PARENT 11 14 22 33
ROOT
ATOM      1  C   UNL     1       4.110  46.410  57.681  1.00  0.00     0.102 C 
ENDROOT
BRANCH   1   2
ATOM      2  C   UNL     1       3.877  44.911  57.903  1.00  0.00     0.092 A 
ATOM      3  O   UNL     1       5.705  44.293  56.505  1.00  0.00    -0.246 OA
ATOM      4  C   UNL     1       4.760  43.945  57.204  1.00  0.00     0.344 A 
ATOM      5  O   UNL     1       4.464  42.593  57.330  1.00  0.00    -0.422 OA
ATOM      6  C   UNL     1       3.458  42.129  58.189  1.00  0.00     0.142 A 
ATOM      7  C   UNL     1       2.871  44.451  58.673  1.00  0.00     0.138 A 
ATOM      8  C   UNL     1       3.328  40.745  58.314  1.00  0.00     0.048 A 
ATOM      9  C   UNL     1       2.660  43.019  58.899  1.00  0.00     0.060 A 
ATOM     10  C   UNL     1       2.380  40.228  59.191  1.00  0.00     0.004 A 
ATOM     11  C   UNL     1       1.728  42.483  59.799  1.00  0.00     0.016 A 
ATOM     12  C   UNL     1       1.586  41.097  59.939  1.00  0.00     0.001 A 
BRANCH   7  13
ATOM     13  O   UNL     1       1.987  45.326  59.275  1.00  0.00    -0.507 OA
ATOM     14  H   UNL     1       2.364  45.617  60.121  1.00  0.00     0.293 HD
ENDBRANCH   7  13
ENDBRANCH   1   2
BRANCH   1  15
ATOM     15  C   UNL     1       5.400  46.942  58.320  1.00  0.00    -0.035 A 
ATOM     16  C   UNL     1       5.824  48.253  58.030  1.00  0.00     0.005 A 
ATOM     17  C   UNL     1       6.186  46.169  59.189  1.00  0.00     0.005 A 
ATOM     18  C   UNL     1       6.985  48.776  58.604  1.00  0.00     0.000 A 
ATOM     19  C   UNL     1       7.349  46.693  59.761  1.00  0.00     0.000 A 
ATOM     20  C   UNL     1       7.746  47.995  59.471  1.00  0.00     0.000 A 
ENDBRANCH   1  15
BRANCH   1  21
ATOM     21  C   UNL     1       3.756  46.923  56.282  1.00  0.00     0.092 A 
ATOM     22  C   UNL     1       4.710  47.086  55.344  1.00  0.00     0.138 A 
ATOM     23  C   UNL     1       2.336  47.225  55.942  1.00  0.00     0.344 A 
ATOM     24  C   UNL     1       4.408  47.597  54.005  1.00  0.00     0.060 A 
ATOM     25  O   UNL     1       2.063  47.561  54.618  1.00  0.00    -0.422 OA
ATOM     26  O   UNL     1       1.410  47.150  56.739  1.00  0.00    -0.246 OA
ATOM     27  C   UNL     1       5.372  47.924  53.039  1.00  0.00     0.016 A 
ATOM     28  C   UNL     1       3.074  47.793  53.676  1.00  0.00     0.142 A 
ATOM     29  C   UNL     1       4.986  48.390  51.775  1.00  0.00     0.001 A 
ATOM     30  C   UNL     1       2.672  48.254  52.422  1.00  0.00     0.048 A 
ATOM     31  C   UNL     1       3.637  48.547  51.465  1.00  0.00     0.004 A 
BRANCH  22  32
ATOM     32  O   UNL     1       6.028  46.763  55.618  1.00  0.00    -0.507 OA
ATOM     33  H   UNL     1       6.073  46.380  56.511  1.00  0.00     0.293 HD
ENDBRANCH  22  32
ENDBRANCH   1  21
TORSDOF 5
ENDMDL
MODEL 8
REMARK VINA RESULT:    -6.074      2.768      4.680
REMARK INTER + INTRA:          -7.658
REMARK INTER:                  -7.711
REMARK INTRA:                   0.053
REMARK UNBOUND:                -0.164
REMARK SMILES O=c1oc2ccccc2c(O)c1C(c1ccccc1)c1c(O)c2ccccc2oc1=O
REMARK SMILES IDX 13 1 12 2 1 3 2 4 3 5 4 6 10 7 5 8 9 9 6 10 8 11 7 12 11 13
REMARK SMILES IDX 14 15 15 16 19 17 16 18 18 19 17 20 20 21 21 22 30 23 23 24
REMARK SMILES IDX 29 25 31 26 24 27 28 28 25 29 27 30 26 31 22 32
REMARK H PARENT 11 14 22 33
ROOT
ATOM      1  C   UNL     1       4.460  44.043  57.202  1.00  0.00     0.102 C 
ENDROOT
BRANCH   1   2
ATOM      2  C   UNL     1       4.137  43.775  55.726  1.00  0.00     0.092 A 
ATOM      3  O   UNL     1       2.260  45.242  55.740  1.00  0.00    -0.246 OA
ATOM      4  C   UNL     1       2.955  44.440  55.126  1.00  0.00     0.344 A 
ATOM      5  O   UNL     1       2.615  44.098  53.823  1.00  0.00    -0.422 OA
ATOM      6  C   UNL     1       3.423  43.262  53.039  1.00  0.00     0.142 A 
ATOM      7  C   UNL     1       4.866  42.920  54.981  1.00  0.00     0.138 A 
ATOM      8  C   UNL     1       3.035  43.080  51.710  1.00  0.00     0.048 A 
ATOM      9  C   UNL     1       4.567  42.677  53.567  1.00  0.00     0.060 A 
ATOM     10  C   UNL     1       3.826  42.302  50.872  1.00  0.00     0.004 A 
ATOM     11  C   UNL     1       5.369  41.918  52.703  1.00  0.00     0.016 A 
ATOM     12  C   UNL     1       4.997  41.727  51.366  1.00  0.00     0.001 A 
BRANCH   7  13
ATOM     13  O   UNL     1       5.927  42.228  55.535  1.00  0.00    -0.507 OA
ATOM     14  H   UNL     1       6.752  42.556  55.140  1.00  0.00     0.293 HD
ENDBRANCH   7  13
ENDBRANCH   1   2
BRANCH   1  15
ATOM     15  C   UNL     1       5.089  45.419  57.461  1.00  0.00    -0.035 A 
ATOM     16  C   UNL     1       5.710  45.671  58.699  1.00  0.00     0.005 A 
ATOM     17  C   UNL     1       5.069  46.450  56.508  1.00  0.00     0.005 A 
ATOM     18  C   UNL     1       6.305  46.907  58.966  1.00  0.00     0.000 A 
ATOM     19  C   UNL     1       5.663  47.686  56.778  1.00  0.00     0.000 A 
ATOM     20  C   UNL     1       6.283  47.913  58.003  1.00  0.00     0.000 A 
ENDBRANCH   1  15
BRANCH   1  21
ATOM     21  C   UNL     1       3.405  43.554  58.198  1.00  0.00     0.092 A 
ATOM     22  C   UNL     1       3.299  42.246  58.506  1.00  0.00     0.138 A 
ATOM     23  C   UNL     1       2.497  44.537  58.857  1.00  0.00     0.344 A 
ATOM     24  C   UNL     1       2.285  41.743  59.436  1.00  0.00     0.060 A 
ATOM     25  O   UNL     1       1.651  44.047  59.848  1.00  0.00    -0.422 OA
ATOM     26  O   UNL     1       2.490  45.736  58.609  1.00  0.00    -0.246 OA
ATOM     27  C   UNL     1       2.031  40.386  59.683  1.00  0.00     0.016 A 
ATOM     28  C   UNL     1       1.505  42.677  60.104  1.00  0.00     0.142 A 
ATOM     29  C   UNL     1       1.051  39.999  60.607  1.00  0.00     0.001 A 
ATOM     30  C   UNL     1       0.526  42.310  61.029  1.00  0.00     0.048 A 
ATOM     31  C   UNL     1       0.305  40.962  61.285  1.00  0.00     0.004 A 
BRANCH  22  32
ATOM     32  O   UNL     1       4.164  41.320  57.948  1.00  0.00    -0.507 OA
ATOM     33  H   UNL     1       4.242  40.565  58.555  1.00  0.00     0.293 HD
ENDBRANCH  22  32
ENDBRANCH   1  21
TORSDOF 5
ENDMDL
MODEL 9
REMARK VINA RESULT:    -5.900      2.083      2.883
REMARK INTER + INTRA:          -7.444
REMARK INTER:                  -7.133
REMARK INTRA:                  -0.311
REMARK UNBOUND:                -0.164
REMARK SMILES O=c1oc2ccccc2c(O)c1C(c1ccccc1)c1c(O)c2ccccc2oc1=O
REMARK SMILES IDX 13 1 12 2 1 3 2 4 3 5 4 6 10 7 5 8 9 9 6 10 8 11 7 12 11 13
REMARK SMILES IDX 14 15 15 16 19 17 16 18 18 19 17 20 20 21 21 22 30 23 23 24
REMARK SMILES IDX 29 25 31 26 24 27 28 28 25 29 27 30 26 31 22 32
REMARK H PARENT 11 14 22 33
ROOT
ATOM      1  C   UNL     1       5.424  46.661  55.480  1.00  0.00     0.102 C 
ENDROOT
BRANCH   1   2
ATOM      2  C   UNL     1       4.758  47.918  54.908  1.00  0.00     0.092 A 
ATOM      3  O   UNL     1       6.053  47.847  52.909  1.00  0.00    -0.246 OA
ATOM      4  C   UNL     1       5.211  48.424  53.589  1.00  0.00     0.344 A 
ATOM      5  O   UNL     1       4.674  49.625  53.140  1.00  0.00    -0.422 OA
ATOM      6  C   UNL     1       3.642  50.280  53.825  1.00  0.00     0.142 A 
ATOM      7  C   UNL     1       3.812  48.597  55.588  1.00  0.00     0.138 A 
ATOM      8  C   UNL     1       3.110  51.419  53.218  1.00  0.00     0.048 A 
ATOM      9  C   UNL     1       3.163  49.787  55.033  1.00  0.00     0.060 A 
ATOM     10  C   UNL     1       2.050  52.081  53.828  1.00  0.00     0.004 A 
ATOM     11  C   UNL     1       2.077  50.450  55.621  1.00  0.00     0.016 A 
ATOM     12  C   UNL     1       1.528  51.592  55.026  1.00  0.00     0.001 A 
BRANCH   7  13
ATOM     13  O   UNL     1       3.424  48.192  56.851  1.00  0.00    -0.507 OA
ATOM     14  H   UNL     1       4.186  47.782  57.294  1.00  0.00     0.293 HD
ENDBRANCH   7  13
ENDBRANCH   1   2
BRANCH   1  15
ATOM     15  C   UNL     1       5.845  46.793  56.950  1.00  0.00    -0.035 A 
ATOM     16  C   UNL     1       6.682  47.858  57.335  1.00  0.00     0.005 A 
ATOM     17  C   UNL     1       5.431  45.885  57.938  1.00  0.00     0.005 A 
ATOM     18  C   UNL     1       7.074  48.018  58.666  1.00  0.00     0.000 A 
ATOM     19  C   UNL     1       5.827  46.046  59.268  1.00  0.00     0.000 A 
ATOM     20  C   UNL     1       6.644  47.112  59.632  1.00  0.00     0.000 A 
ENDBRANCH   1  15
BRANCH   1  21
ATOM     21  C   UNL     1       4.792  45.335  55.047  1.00  0.00     0.092 A 
ATOM     22  C   UNL     1       5.414  44.530  54.162  1.00  0.00     0.138 A 
ATOM     23  C   UNL     1       3.485  44.914  55.626  1.00  0.00     0.344 A 
ATOM     24  C   UNL     1       4.825  43.267  53.709  1.00  0.00     0.060 A 
ATOM     25  O   UNL     1       3.028  43.641  55.293  1.00  0.00    -0.422 OA
ATOM     26  O   UNL     1       2.827  45.597  56.401  1.00  0.00    -0.246 OA
ATOM     27  C   UNL     1       5.351  42.462  52.688  1.00  0.00     0.016 A 
ATOM     28  C   UNL     1       3.651  42.849  54.320  1.00  0.00     0.142 A 
ATOM     29  C   UNL     1       4.727  41.258  52.335  1.00  0.00     0.001 A 
ATOM     30  C   UNL     1       3.018  41.652  53.983  1.00  0.00     0.048 A 
ATOM     31  C   UNL     1       3.566  40.850  52.988  1.00  0.00     0.004 A 
BRANCH  22  32
ATOM     32  O   UNL     1       6.653  44.873  53.649  1.00  0.00    -0.507 OA
ATOM     33  H   UNL     1       7.276  44.149  53.834  1.00  0.00     0.293 HD
ENDBRANCH  22  32
ENDBRANCH   1  21
TORSDOF 5
ENDMDL
MODEL 10
REMARK VINA RESULT:    -5.894      2.537      5.755
REMARK INTER + INTRA:          -7.437
REMARK INTER:                  -7.795
REMARK INTRA:                   0.358
REMARK UNBOUND:                -0.164
REMARK SMILES O=c1oc2ccccc2c(O)c1C(c1ccccc1)c1c(O)c2ccccc2oc1=O
REMARK SMILES IDX 13 1 12 2 1 3 2 4 3 5 4 6 10 7 5 8 9 9 6 10 8 11 7 12 11 13
REMARK SMILES IDX 14 15 15 16 19 17 16 18 18 19 17 20 20 21 21 22 30 23 23 24
REMARK SMILES IDX 29 25 31 26 24 27 28 28 25 29 27 30 26 31 22 32
REMARK H PARENT 11 14 22 33
ROOT
ATOM      1  C   UNL     1       3.895  45.325  54.609  1.00  0.00     0.102 C 
ENDROOT
BRANCH   1   2
ATOM      2  C   UNL     1       4.803  46.043  55.615  1.00  0.00     0.092 A 
ATOM      3  O   UNL     1       5.734  47.468  53.948  1.00  0.00    -0.246 OA
ATOM      4  C   UNL     1       5.717  47.100  55.117  1.00  0.00     0.344 A 
ATOM      5  O   UNL     1       6.609  47.660  56.024  1.00  0.00    -0.422 OA
ATOM      6  C   UNL     1       6.573  47.351  57.391  1.00  0.00     0.142 A 
ATOM      7  C   UNL     1       4.827  45.707  56.921  1.00  0.00     0.138 A 
ATOM      8  C   UNL     1       7.446  48.059  58.218  1.00  0.00     0.048 A 
ATOM      9  C   UNL     1       5.682  46.405  57.884  1.00  0.00     0.060 A 
ATOM     10  C   UNL     1       7.419  47.829  59.589  1.00  0.00     0.004 A 
ATOM     11  C   UNL     1       5.647  46.205  59.271  1.00  0.00     0.016 A 
ATOM     12  C   UNL     1       6.514  46.908  60.117  1.00  0.00     0.001 A 
BRANCH   7  13
ATOM     13  O   UNL     1       4.042  44.674  57.398  1.00  0.00    -0.507 OA
ATOM     14  H   UNL     1       4.518  44.229  58.118  1.00  0.00     0.293 HD
ENDBRANCH   7  13
ENDBRANCH   1   2
BRANCH   1  15
ATOM     15  C   UNL     1       3.444  46.208  53.437  1.00  0.00    -0.035 A 
ATOM     16  C   UNL     1       2.542  47.263  53.674  1.00  0.00     0.005 A 
ATOM     17  C   UNL     1       3.893  46.004  52.122  1.00  0.00     0.005 A 
ATOM     18  C   UNL     1       2.120  48.095  52.635  1.00  0.00     0.000 A 
ATOM     19  C   UNL     1       3.468  46.837  51.083  1.00  0.00     0.000 A 
ATOM     20  C   UNL     1       2.586  47.882  51.340  1.00  0.00     0.000 A 
ENDBRANCH   1  15
BRANCH   1  21
ATOM     21  C   UNL     1       4.291  43.881  54.288  1.00  0.00     0.092 A 
ATOM     22  C   UNL     1       3.421  42.868  54.473  1.00  0.00     0.138 A 
ATOM     23  C   UNL     1       5.648  43.590  53.743  1.00  0.00     0.344 A 
ATOM     24  C   UNL     1       3.777  41.474  54.199  1.00  0.00     0.060 A 
ATOM     25  O   UNL     1       5.902  42.278  53.350  1.00  0.00    -0.422 OA
ATOM     26  O   UNL     1       6.518  44.436  53.584  1.00  0.00    -0.246 OA
ATOM     27  C   UNL     1       2.970  40.368  54.507  1.00  0.00     0.016 A 
ATOM     28  C   UNL     1       5.011  41.228  53.613  1.00  0.00     0.142 A 
ATOM     29  C   UNL     1       3.388  39.069  54.189  1.00  0.00     0.001 A 
ATOM     30  C   UNL     1       5.443  39.942  53.288  1.00  0.00     0.048 A 
ATOM     31  C   UNL     1       4.620  38.857  53.573  1.00  0.00     0.004 A 
BRANCH  22  32
ATOM     32  O   UNL     1       2.138  43.118  54.928  1.00  0.00    -0.507 OA
ATOM     33  H   UNL     1       2.197  43.535  55.805  1.00  0.00     0.293 HD
ENDBRANCH  22  32
ENDBRANCH   1  21
TORSDOF 5
ENDMDL
MODEL 11
REMARK VINA RESULT:    -5.821      3.649      8.256
REMARK INTER + INTRA:          -7.347
REMARK INTER:                  -7.134
REMARK INTRA:                  -0.213
REMARK UNBOUND:                -0.164
REMARK SMILES O=c1oc2ccccc2c(O)c1C(c1ccccc1)c1c(O)c2ccccc2oc1=O
REMARK SMILES IDX 13 1 12 2 1 3 2 4 3 5 4 6 10 7 5 8 9 9 6 10 8 11 7 12 11 13
REMARK SMILES IDX 14 15 15 16 19 17 16 18 18 19 17 20 20 21 21 22 30 23 23 24
REMARK SMILES IDX 29 25 31 26 24 27 28 28 25 29 27 30 26 31 22 32
REMARK H PARENT 11 14 22 33
ROOT
ATOM      1  C   UNL     1       4.925  42.951  53.725  1.00  0.00     0.102 C 
ENDROOT
BRANCH   1   2
ATOM      2  C   UNL     1       4.274  42.637  55.078  1.00  0.00     0.092 A 
ATOM      3  O   UNL     1       5.944  43.821  56.297  1.00  0.00    -0.246 OA
ATOM      4  C   UNL     1       4.935  43.126  56.314  1.00  0.00     0.344 A 
ATOM      5  O   UNL     1       4.391  42.738  57.532  1.00  0.00    -0.422 OA
ATOM      6  C   UNL     1       3.186  42.026  57.616  1.00  0.00     0.142 A 
ATOM      7  C   UNL     1       3.153  41.895  55.176  1.00  0.00     0.138 A 
ATOM      8  C   UNL     1       2.684  41.790  58.897  1.00  0.00     0.048 A 
ATOM      9  C   UNL     1       2.522  41.611  56.468  1.00  0.00     0.060 A 
ATOM     10  C   UNL     1       1.467  41.132  59.039  1.00  0.00     0.004 A 
ATOM     11  C   UNL     1       1.284  40.973  56.626  1.00  0.00     0.016 A 
ATOM     12  C   UNL     1       0.763  40.730  57.903  1.00  0.00     0.001 A 
BRANCH   7  13
ATOM     13  O   UNL     1       2.559  41.363  54.047  1.00  0.00    -0.507 OA
ATOM     14  H   UNL     1       2.692  41.977  53.307  1.00  0.00     0.293 HD
ENDBRANCH   7  13
ENDBRANCH   1   2
BRANCH   1  15
ATOM     15  C   UNL     1       5.043  41.736  52.795  1.00  0.00    -0.035 A 
ATOM     16  C   UNL     1       5.254  40.459  53.350  1.00  0.00     0.005 A 
ATOM     17  C   UNL     1       4.952  41.844  51.397  1.00  0.00     0.005 A 
ATOM     18  C   UNL     1       5.353  39.329  52.535  1.00  0.00     0.000 A 
ATOM     19  C   UNL     1       5.053  40.712  50.584  1.00  0.00     0.000 A 
ATOM     20  C   UNL     1       5.250  39.457  51.152  1.00  0.00     0.000 A 
ENDBRANCH   1  15
BRANCH   1  21
ATOM     21  C   UNL     1       4.505  44.281  53.094  1.00  0.00     0.092 A 
ATOM     22  C   UNL     1       5.337  45.342  53.102  1.00  0.00     0.138 A 
ATOM     23  C   UNL     1       3.171  44.402  52.440  1.00  0.00     0.344 A 
ATOM     24  C   UNL     1       4.956  46.635  52.527  1.00  0.00     0.060 A 
ATOM     25  O   UNL     1       2.902  45.593  51.771  1.00  0.00    -0.422 OA
ATOM     26  O   UNL     1       2.334  43.509  52.422  1.00  0.00    -0.246 OA
ATOM     27  C   UNL     1       5.716  47.810  52.633  1.00  0.00     0.016 A 
ATOM     28  C   UNL     1       3.748  46.708  51.849  1.00  0.00     0.142 A 
ATOM     29  C   UNL     1       5.279  48.999  52.034  1.00  0.00     0.001 A 
ATOM     30  C   UNL     1       3.298  47.882  51.244  1.00  0.00     0.048 A 
ATOM     31  C   UNL     1       4.075  49.032  51.333  1.00  0.00     0.004 A 
BRANCH  22  32
ATOM     32  O   UNL     1       6.602  45.241  53.656  1.00  0.00    -0.507 OA
ATOM     33  H   UNL     1       6.509  45.088  54.612  1.00  0.00     0.293 HD
ENDBRANCH  22  32
ENDBRANCH   1  21
TORSDOF 5
ENDMDL
MODEL 12
REMARK VINA RESULT:    -5.809      2.813      6.616
REMARK INTER + INTRA:          -7.331
REMARK INTER:                  -7.047
REMARK INTRA:                  -0.284
REMARK UNBOUND:                -0.164
REMARK SMILES O=c1oc2ccccc2c(O)c1C(c1ccccc1)c1c(O)c2ccccc2oc1=O
REMARK SMILES IDX 13 1 12 2 1 3 2 4 3 5 4 6 10 7 5 8 9 9 6 10 8 11 7 12 11 13
REMARK SMILES IDX 14 15 15 16 19 17 16 18 18 19 17 20 20 21 21 22 30 23 23 24
REMARK SMILES IDX 29 25 31 26 24 27 28 28 25 29 27 30 26 31 22 32
REMARK H PARENT 11 14 22 33
ROOT
ATOM      1  C   UNL     1       3.461  45.108  57.035  1.00  0.00     0.102 C 
ENDROOT
BRANCH   1   2
ATOM      2  C   UNL     1       2.739  44.214  58.050  1.00  0.00     0.092 A 
ATOM      3  O   UNL     1       1.131  45.892  58.573  1.00  0.00    -0.246 OA
ATOM      4  C   UNL     1       1.577  44.770  58.786  1.00  0.00     0.344 A 
ATOM      5  O   UNL     1       1.007  43.984  59.780  1.00  0.00    -0.422 OA
ATOM      6  C   UNL     1       1.409  42.660  60.003  1.00  0.00     0.142 A 
ATOM      7  C   UNL     1       3.159  42.962  58.324  1.00  0.00     0.138 A 
ATOM      8  C   UNL     1       0.687  41.936  60.954  1.00  0.00     0.048 A 
ATOM      9  C   UNL     1       2.458  42.102  59.281  1.00  0.00     0.060 A 
ATOM     10  C   UNL     1       1.011  40.603  61.181  1.00  0.00     0.004 A 
ATOM     11  C   UNL     1       2.754  40.750  59.502  1.00  0.00     0.016 A 
ATOM     12  C   UNL     1       2.038  40.007  60.450  1.00  0.00     0.001 A 
BRANCH   7  13
ATOM     13  O   UNL     1       4.284  42.445  57.710  1.00  0.00    -0.507 OA
ATOM     14  H   UNL     1       4.523  41.612  58.149  1.00  0.00     0.293 HD
ENDBRANCH   7  13
ENDBRANCH   1   2
BRANCH   1  15
ATOM     15  C   UNL     1       4.610  45.930  57.635  1.00  0.00    -0.035 A 
ATOM     16  C   UNL     1       5.174  46.979  56.883  1.00  0.00     0.005 A 
ATOM     17  C   UNL     1       5.132  45.676  58.914  1.00  0.00     0.005 A 
ATOM     18  C   UNL     1       6.212  47.757  57.402  1.00  0.00     0.000 A 
ATOM     19  C   UNL     1       6.172  46.455  59.429  1.00  0.00     0.000 A 
ATOM     20  C   UNL     1       6.708  47.495  58.676  1.00  0.00     0.000 A 
ENDBRANCH   1  15
BRANCH   1  21
ATOM     21  C   UNL     1       3.694  44.475  55.660  1.00  0.00     0.092 A 
ATOM     22  C   UNL     1       2.713  44.452  54.735  1.00  0.00     0.138 A 
ATOM     23  C   UNL     1       5.027  43.897  55.327  1.00  0.00     0.344 A 
ATOM     24  C   UNL     1       2.896  43.833  53.420  1.00  0.00     0.060 A 
ATOM     25  O   UNL     1       5.215  43.456  54.020  1.00  0.00    -0.422 OA
ATOM     26  O   UNL     1       5.962  43.833  56.115  1.00  0.00    -0.246 OA
ATOM     27  C   UNL     1       1.875  43.649  52.475  1.00  0.00     0.016 A 
ATOM     28  C   UNL     1       4.165  43.376  53.094  1.00  0.00     0.142 A 
ATOM     29  C   UNL     1       2.149  43.062  51.233  1.00  0.00     0.001 A 
ATOM     30  C   UNL     1       4.457  42.792  51.861  1.00  0.00     0.048 A 
ATOM     31  C   UNL     1       3.441  42.641  50.923  1.00  0.00     0.004 A 
BRANCH  22  32
ATOM     32  O   UNL     1       1.483  45.028  55.000  1.00  0.00    -0.507 OA
ATOM     33  H   UNL     1       0.982  45.084  54.169  1.00  0.00     0.293 HD
ENDBRANCH  22  32
ENDBRANCH   1  21
TORSDOF 5
ENDMDL
MODEL 13
REMARK VINA RESULT:    -5.752      1.407      2.552
REMARK INTER + INTRA:          -7.261
REMARK INTER:                  -7.840
REMARK INTRA:                   0.579
REMARK UNBOUND:                -0.164
REMARK SMILES O=c1oc2ccccc2c(O)c1C(c1ccccc1)c1c(O)c2ccccc2oc1=O
REMARK SMILES IDX 13 1 12 2 1 3 2 4 3 5 4 6 10 7 5 8 9 9 6 10 8 11 7 12 11 13
REMARK SMILES IDX 14 15 15 16 19 17 16 18 18 19 17 20 20 21 21 22 30 23 23 24
REMARK SMILES IDX 29 25 31 26 24 27 28 28 25 29 27 30 26 31 22 32
REMARK H PARENT 11 14 22 33
ROOT
ATOM      1  C   UNL     1       5.467  47.039  56.925  1.00  0.00     0.102 C 
ENDROOT
BRANCH   1   2
ATOM      2  C   UNL     1       4.402  48.116  56.687  1.00  0.00     0.092 A 
ATOM      3  O   UNL     1       4.818  48.187  54.342  1.00  0.00    -0.246 OA
ATOM      4  C   UNL     1       4.207  48.629  55.308  1.00  0.00     0.344 A 
ATOM      5  O   UNL     1       3.317  49.681  55.132  1.00  0.00    -0.422 OA
ATOM      6  C   UNL     1       2.520  50.165  56.179  1.00  0.00     0.142 A 
ATOM      7  C   UNL     1       3.676  48.639  57.696  1.00  0.00     0.138 A 
ATOM      8  C   UNL     1       1.585  51.149  55.854  1.00  0.00     0.048 A 
ATOM      9  C   UNL     1       2.647  49.654  57.465  1.00  0.00     0.060 A 
ATOM     10  C   UNL     1       0.733  51.630  56.842  1.00  0.00     0.004 A 
ATOM     11  C   UNL     1       1.763  50.129  58.444  1.00  0.00     0.016 A 
ATOM     12  C   UNL     1       0.817  51.115  58.136  1.00  0.00     0.001 A 
BRANCH   7  13
ATOM     13  O   UNL     1       3.890  48.234  59.001  1.00  0.00    -0.507 OA
ATOM     14  H   UNL     1       3.496  47.354  59.122  1.00  0.00     0.293 HD
ENDBRANCH   7  13
ENDBRANCH   1   2
BRANCH   1  15
ATOM     15  C   UNL     1       6.431  47.360  58.076  1.00  0.00    -0.035 A 
ATOM     16  C   UNL     1       6.770  46.348  58.994  1.00  0.00     0.005 A 
ATOM     17  C   UNL     1       6.992  48.635  58.257  1.00  0.00     0.005 A 
ATOM     18  C   UNL     1       7.654  46.600  60.046  1.00  0.00     0.000 A 
ATOM     19  C   UNL     1       7.875  48.884  59.311  1.00  0.00     0.000 A 
ATOM     20  C   UNL     1       8.208  47.868  60.203  1.00  0.00     0.000 A 
ENDBRANCH   1  15
BRANCH   1  21
ATOM     21  C   UNL     1       4.971  45.595  56.806  1.00  0.00     0.092 A 
ATOM     22  C   UNL     1       4.245  45.031  57.792  1.00  0.00     0.138 A 
ATOM     23  C   UNL     1       5.272  44.809  55.576  1.00  0.00     0.344 A 
ATOM     24  C   UNL     1       3.776  43.645  57.720  1.00  0.00     0.060 A 
ATOM     25  O   UNL     1       4.683  43.551  55.473  1.00  0.00    -0.422 OA
ATOM     26  O   UNL     1       5.959  45.220  54.650  1.00  0.00    -0.246 OA
ATOM     27  C   UNL     1       3.146  42.959  58.769  1.00  0.00     0.016 A 
ATOM     28  C   UNL     1       3.991  42.954  56.535  1.00  0.00     0.142 A 
ATOM     29  C   UNL     1       2.714  41.637  58.600  1.00  0.00     0.001 A 
ATOM     30  C   UNL     1       3.565  41.638  56.349  1.00  0.00     0.048 A 
ATOM     31  C   UNL     1       2.917  40.980  57.388  1.00  0.00     0.004 A 
BRANCH  22  32
ATOM     32  O   UNL     1       3.908  45.757  58.921  1.00  0.00    -0.507 OA
ATOM     33  H   UNL     1       3.924  45.161  59.689  1.00  0.00     0.293 HD
ENDBRANCH  22  32
ENDBRANCH   1  21
TORSDOF 5
ENDMDL
MODEL 14
REMARK VINA RESULT:    -5.735      2.702      3.552
REMARK INTER + INTRA:          -7.240
REMARK INTER:                  -6.918
REMARK INTRA:                  -0.322
REMARK UNBOUND:                -0.164
REMARK SMILES O=c1oc2ccccc2c(O)c1C(c1ccccc1)c1c(O)c2ccccc2oc1=O
REMARK SMILES IDX 13 1 12 2 1 3 2 4 3 5 4 6 10 7 5 8 9 9 6 10 8 11 7 12 11 13
REMARK SMILES IDX 14 15 15 16 19 17 16 18 18 19 17 20 20 21 21 22 30 23 23 24
REMARK SMILES IDX 29 25 31 26 24 27 28 28 25 29 27 30 26 31 22 32
REMARK H PARENT 11 14 22 33
ROOT
ATOM      1  C   UNL     1       5.167  45.607  54.990  1.00  0.00     0.102 C 
ENDROOT
BRANCH   1   2
ATOM      2  C   UNL     1       5.093  46.752  53.972  1.00  0.00     0.092 A 
ATOM      3  O   UNL     1       7.423  46.639  53.489  1.00  0.00    -0.246 OA
ATOM      4  C   UNL     1       6.344  47.191  53.306  1.00  0.00     0.344 A 
ATOM      5  O   UNL     1       6.275  48.300  52.472  1.00  0.00    -0.422 OA
ATOM      6  C   UNL     1       5.057  48.914  52.149  1.00  0.00     0.142 A 
ATOM      7  C   UNL     1       3.939  47.396  53.704  1.00  0.00     0.138 A 
ATOM      8  C   UNL     1       5.103  49.950  51.215  1.00  0.00     0.048 A 
ATOM      9  C   UNL     1       3.866  48.477  52.718  1.00  0.00     0.060 A 
ATOM     10  C   UNL     1       3.919  50.562  50.820  1.00  0.00     0.004 A 
ATOM     11  C   UNL     1       2.678  49.085  52.289  1.00  0.00     0.016 A 
ATOM     12  C   UNL     1       2.705  50.124  51.351  1.00  0.00     0.001 A 
BRANCH   7  13
ATOM     13  O   UNL     1       2.773  47.058  54.365  1.00  0.00    -0.507 OA
ATOM     14  H   UNL     1       2.792  46.108  54.564  1.00  0.00     0.293 HD
ENDBRANCH   7  13
ENDBRANCH   1   2
BRANCH   1  15
ATOM     15  C   UNL     1       4.959  46.052  56.444  1.00  0.00    -0.035 A 
ATOM     16  C   UNL     1       5.129  45.118  57.483  1.00  0.00     0.005 A 
ATOM     17  C   UNL     1       4.599  47.366  56.787  1.00  0.00     0.005 A 
ATOM     18  C   UNL     1       4.962  45.490  58.819  1.00  0.00     0.000 A 
ATOM     19  C   UNL     1       4.431  47.736  58.124  1.00  0.00     0.000 A 
ATOM     20  C   UNL     1       4.615  46.800  59.138  1.00  0.00     0.000 A 
ENDBRANCH   1  15
BRANCH   1  21
ATOM     21  C   UNL     1       4.495  44.303  54.552  1.00  0.00     0.092 A 
ATOM     22  C   UNL     1       5.142  43.423  53.762  1.00  0.00     0.138 A 
ATOM     23  C   UNL     1       3.116  43.986  55.023  1.00  0.00     0.344 A 
ATOM     24  C   UNL     1       4.519  42.178  53.306  1.00  0.00     0.060 A 
ATOM     25  O   UNL     1       2.612  42.729  54.699  1.00  0.00    -0.422 OA
ATOM     26  O   UNL     1       2.435  44.741  55.705  1.00  0.00    -0.246 OA
ATOM     27  C   UNL     1       5.084  41.298  52.371  1.00  0.00     0.016 A 
ATOM     28  C   UNL     1       3.270  41.858  53.820  1.00  0.00     0.142 A 
ATOM     29  C   UNL     1       4.420  40.119  52.009  1.00  0.00     0.001 A 
ATOM     30  C   UNL     1       2.596  40.687  53.473  1.00  0.00     0.048 A 
ATOM     31  C   UNL     1       3.180  39.810  52.566  1.00  0.00     0.004 A 
BRANCH  22  32
ATOM     32  O   UNL     1       6.442  43.669  53.354  1.00  0.00    -0.507 OA
ATOM     33  H   UNL     1       7.034  43.544  54.115  1.00  0.00     0.293 HD
ENDBRANCH  22  32
ENDBRANCH   1  21
TORSDOF 5
ENDMDL
MODEL 15
REMARK VINA RESULT:    -5.690      2.424      7.030
REMARK INTER + INTRA:          -7.185
REMARK INTER:                  -6.915
REMARK INTRA:                  -0.270
REMARK UNBOUND:                -0.164
REMARK SMILES O=c1oc2ccccc2c(O)c1C(c1ccccc1)c1c(O)c2ccccc2oc1=O
REMARK SMILES IDX 13 1 12 2 1 3 2 4 3 5 4 6 10 7 5 8 9 9 6 10 8 11 7 12 11 13
REMARK SMILES IDX 14 15 15 16 19 17 16 18 18 19 17 20 20 21 21 22 30 23 23 24
REMARK SMILES IDX 29 25 31 26 24 27 28 28 25 29 27 30 26 31 22 32
REMARK H PARENT 11 14 22 33
ROOT
ATOM      1  C   UNL     1       3.851  46.300  55.470  1.00  0.00     0.102 C 
ENDROOT
BRANCH   1   2
ATOM      2  C   UNL     1       3.626  44.851  55.020  1.00  0.00     0.092 A 
ATOM      3  O   UNL     1       1.267  45.138  54.851  1.00  0.00    -0.246 OA
ATOM      4  C   UNL     1       2.238  44.393  54.771  1.00  0.00     0.344 A 
ATOM      5  O   UNL     1       2.046  43.050  54.472  1.00  0.00    -0.422 OA
ATOM      6  C   UNL     1       3.120  42.171  54.273  1.00  0.00     0.142 A 
ATOM      7  C   UNL     1       4.645  43.978  54.891  1.00  0.00     0.138 A 
ATOM      8  C   UNL     1       2.804  40.873  53.869  1.00  0.00     0.048 A 
ATOM      9  C   UNL     1       4.432  42.599  54.444  1.00  0.00     0.060 A 
ATOM     10  C   UNL     1       3.832  39.973  53.609  1.00  0.00     0.004 A 
ATOM     11  C   UNL     1       5.457  41.689  54.151  1.00  0.00     0.016 A 
ATOM     12  C   UNL     1       5.158  40.383  53.742  1.00  0.00     0.001 A 
BRANCH   7  13
ATOM     13  O   UNL     1       5.941  44.356  55.190  1.00  0.00    -0.507 OA
ATOM     14  H   UNL     1       6.350  43.663  55.732  1.00  0.00     0.293 HD
ENDBRANCH   7  13
ENDBRANCH   1   2
BRANCH   1  15
ATOM     15  C   UNL     1       4.703  46.433  56.740  1.00  0.00    -0.035 A 
ATOM     16  C   UNL     1       4.425  45.609  57.847  1.00  0.00     0.005 A 
ATOM     17  C   UNL     1       5.758  47.354  56.848  1.00  0.00     0.005 A 
ATOM     18  C   UNL     1       5.188  45.692  59.014  1.00  0.00     0.000 A 
ATOM     19  C   UNL     1       6.519  47.436  58.017  1.00  0.00     0.000 A 
ATOM     20  C   UNL     1       6.236  46.605  59.097  1.00  0.00     0.000 A 
ENDBRANCH   1  15
BRANCH   1  21
ATOM     21  C   UNL     1       4.114  47.300  54.340  1.00  0.00     0.092 A 
ATOM     22  C   UNL     1       3.151  48.150  53.932  1.00  0.00     0.138 A 
ATOM     23  C   UNL     1       5.458  47.353  53.697  1.00  0.00     0.344 A 
ATOM     24  C   UNL     1       3.363  49.101  52.838  1.00  0.00     0.060 A 
ATOM     25  O   UNL     1       5.674  48.369  52.769  1.00  0.00    -0.422 OA
ATOM     26  O   UNL     1       6.379  46.593  53.970  1.00  0.00    -0.246 OA
ATOM     27  C   UNL     1       2.362  49.906  52.274  1.00  0.00     0.016 A 
ATOM     28  C   UNL     1       4.642  49.198  52.307  1.00  0.00     0.142 A 
ATOM     29  C   UNL     1       2.664  50.802  51.241  1.00  0.00     0.001 A 
ATOM     30  C   UNL     1       4.961  50.086  51.280  1.00  0.00     0.048 A 
ATOM     31  C   UNL     1       3.965  50.898  50.750  1.00  0.00     0.004 A 
BRANCH  22  32
ATOM     32  O   UNL     1       1.912  48.157  54.548  1.00  0.00    -0.507 OA
ATOM     33  H   UNL     1       1.791  47.309  55.009  1.00  0.00     0.293 HD
ENDBRANCH  22  32
ENDBRANCH   1  21
TORSDOF 5
ENDMDL
MODEL 16
REMARK VINA RESULT:    -5.674      2.780      7.116
REMARK INTER + INTRA:          -7.165
REMARK INTER:                  -7.463
REMARK INTRA:                   0.298
REMARK UNBOUND:                -0.164
REMARK SMILES O=c1oc2ccccc2c(O)c1C(c1ccccc1)c1c(O)c2ccccc2oc1=O
REMARK SMILES IDX 13 1 12 2 1 3 2 4 3 5 4 6 10 7 5 8 9 9 6 10 8 11 7 12 11 13
REMARK SMILES IDX 14 15 15 16 19 17 16 18 18 19 17 20 20 21 21 22 30 23 23 24
REMARK SMILES IDX 29 25 31 26 24 27 28 28 25 29 27 30 26 31 22 32
REMARK H PARENT 11 14 22 33
ROOT
ATOM      1  C   UNL     1       5.464  45.906  54.461  1.00  0.00     0.102 C 
ENDROOT
BRANCH   1   2
ATOM      2  C   UNL     1       4.800  46.148  55.823  1.00  0.00     0.092 A 
ATOM      3  O   UNL     1       6.551  47.585  56.561  1.00  0.00    -0.246 OA
ATOM      4  C   UNL     1       5.497  47.010  56.809  1.00  0.00     0.344 A 
ATOM      5  O   UNL     1       4.935  47.126  58.074  1.00  0.00    -0.422 OA
ATOM      6  C   UNL     1       3.686  46.571  58.387  1.00  0.00     0.142 A 
ATOM      7  C   UNL     1       3.633  45.565  56.161  1.00  0.00     0.138 A 
ATOM      8  C   UNL     1       3.175  46.850  59.656  1.00  0.00     0.048 A 
ATOM      9  C   UNL     1       2.991  45.810  57.454  1.00  0.00     0.060 A 
ATOM     10  C   UNL     1       1.918  46.366  60.003  1.00  0.00     0.004 A 
ATOM     11  C   UNL     1       1.713  45.354  57.809  1.00  0.00     0.016 A 
ATOM     12  C   UNL     1       1.184  45.626  59.077  1.00  0.00     0.001 A 
BRANCH   7  13
ATOM     13  O   UNL     1       2.999  44.697  55.291  1.00  0.00    -0.507 OA
ATOM     14  H   UNL     1       2.040  44.838  55.355  1.00  0.00     0.293 HD
ENDBRANCH   7  13
ENDBRANCH   1   2
BRANCH   1  15
ATOM     15  C   UNL     1       5.350  44.460  53.961  1.00  0.00    -0.035 A 
ATOM     16  C   UNL     1       5.675  43.401  54.830  1.00  0.00     0.005 A 
ATOM     17  C   UNL     1       4.934  44.142  52.657  1.00  0.00     0.005 A 
ATOM     18  C   UNL     1       5.570  42.072  54.414  1.00  0.00     0.000 A 
ATOM     19  C   UNL     1       4.832  42.812  52.243  1.00  0.00     0.000 A 
ATOM     20  C   UNL     1       5.147  41.778  53.121  1.00  0.00     0.000 A 
ENDBRANCH   1  15
BRANCH   1  21
ATOM     21  C   UNL     1       5.265  47.023  53.433  1.00  0.00     0.092 A 
ATOM     22  C   UNL     1       4.030  47.367  53.017  1.00  0.00     0.138 A 
ATOM     23  C   UNL     1       6.448  47.757  52.900  1.00  0.00     0.344 A 
ATOM     24  C   UNL     1       3.808  48.414  52.016  1.00  0.00     0.060 A 
ATOM     25  O   UNL     1       6.193  48.846  52.070  1.00  0.00    -0.422 OA
ATOM     26  O   UNL     1       7.608  47.487  53.184  1.00  0.00    -0.246 OA
ATOM     27  C   UNL     1       2.565  48.716  51.440  1.00  0.00     0.016 A 
ATOM     28  C   UNL     1       4.909  49.145  51.594  1.00  0.00     0.142 A 
ATOM     29  C   UNL     1       2.445  49.750  50.502  1.00  0.00     0.001 A 
ATOM     30  C   UNL     1       4.808  50.180  50.663  1.00  0.00     0.048 A 
ATOM     31  C   UNL     1       3.566  50.487  50.120  1.00  0.00     0.004 A 
BRANCH  22  32
ATOM     32  O   UNL     1       2.912  46.736  53.535  1.00  0.00    -0.507 OA
ATOM     33  H   UNL     1       2.120  47.126  53.128  1.00  0.00     0.293 HD
ENDBRANCH  22  32
ENDBRANCH   1  21
TORSDOF 5
ENDMDL
MODEL 17
REMARK VINA RESULT:    -5.654      0.968      2.611
REMARK INTER + INTRA:          -7.140
REMARK INTER:                  -7.462
REMARK INTRA:                   0.323
REMARK UNBOUND:                -0.164
REMARK SMILES O=c1oc2ccccc2c(O)c1C(c1ccccc1)c1c(O)c2ccccc2oc1=O
REMARK SMILES IDX 13 1 12 2 1 3 2 4 3 5 4 6 10 7 5 8 9 9 6 10 8 11 7 12 11 13
REMARK SMILES IDX 14 15 15 16 19 17 16 18 18 19 17 20 20 21 21 22 30 23 23 24
REMARK SMILES IDX 29 25 31 26 24 27 28 28 25 29 27 30 26 31 22 32
REMARK H PARENT 11 14 22 33
ROOT
ATOM      1  C   UNL     1       5.661  46.303  56.736  1.00  0.00     0.102 C 
ENDROOT
BRANCH   1   2
ATOM      2  C   UNL     1       5.015  47.313  55.779  1.00  0.00     0.092 A 
ATOM      3  O   UNL     1       3.935  48.487  57.549  1.00  0.00    -0.246 OA
ATOM      4  C   UNL     1       4.127  48.358  56.345  1.00  0.00     0.344 A 
ATOM      5  O   UNL     1       3.465  49.194  55.454  1.00  0.00    -0.422 OA
ATOM      6  C   UNL     1       3.716  49.158  54.075  1.00  0.00     0.142 A 
ATOM      7  C   UNL     1       5.194  47.248  54.445  1.00  0.00     0.138 A 
ATOM      8  C   UNL     1       3.072  50.120  53.295  1.00  0.00     0.048 A 
ATOM      9  C   UNL     1       4.591  48.224  53.534  1.00  0.00     0.060 A 
ATOM     10  C   UNL     1       3.322  50.164  51.927  1.00  0.00     0.004 A 
ATOM     11  C   UNL     1       4.854  48.298  52.159  1.00  0.00     0.016 A 
ATOM     12  C   UNL     1       4.220  49.258  51.360  1.00  0.00     0.001 A 
BRANCH   7  13
ATOM     13  O   UNL     1       5.954  46.239  53.884  1.00  0.00    -0.507 OA
ATOM     14  H   UNL     1       5.540  45.965  53.049  1.00  0.00     0.293 HD
ENDBRANCH   7  13
ENDBRANCH   1   2
BRANCH   1  15
ATOM     15  C   UNL     1       6.432  46.948  57.896  1.00  0.00    -0.035 A 
ATOM     16  C   UNL     1       6.644  46.211  59.077  1.00  0.00     0.005 A 
ATOM     17  C   UNL     1       6.937  48.256  57.831  1.00  0.00     0.005 A 
ATOM     18  C   UNL     1       7.353  46.760  60.148  1.00  0.00     0.000 A 
ATOM     19  C   UNL     1       7.644  48.804  58.904  1.00  0.00     0.000 A 
ATOM     20  C   UNL     1       7.855  48.056  60.060  1.00  0.00     0.000 A 
ENDBRANCH   1  15
BRANCH   1  21
ATOM     21  C   UNL     1       4.806  45.074  57.058  1.00  0.00     0.092 A 
ATOM     22  C   UNL     1       3.852  45.126  58.010  1.00  0.00     0.138 A 
ATOM     23  C   UNL     1       5.010  43.810  56.295  1.00  0.00     0.344 A 
ATOM     24  C   UNL     1       3.034  43.961  58.359  1.00  0.00     0.060 A 
ATOM     25  O   UNL     1       4.116  42.771  56.543  1.00  0.00    -0.422 OA
ATOM     26  O   UNL     1       5.878  43.655  55.446  1.00  0.00    -0.246 OA
ATOM     27  C   UNL     1       2.133  43.912  59.432  1.00  0.00     0.016 A 
ATOM     28  C   UNL     1       3.177  42.819  57.584  1.00  0.00     0.142 A 
ATOM     29  C   UNL     1       1.378  42.757  59.678  1.00  0.00     0.001 A 
ATOM     30  C   UNL     1       2.432  41.661  57.812  1.00  0.00     0.048 A 
ATOM     31  C   UNL     1       1.522  41.636  58.863  1.00  0.00     0.004 A 
BRANCH  22  32
ATOM     32  O   UNL     1       3.607  46.303  58.696  1.00  0.00    -0.507 OA
ATOM     33  H   UNL     1       2.648  46.385  58.836  1.00  0.00     0.293 HD
ENDBRANCH  22  32
ENDBRANCH   1  21
TORSDOF 5
ENDMDL
MODEL 18
REMARK VINA RESULT:    -5.643      1.694      3.093
REMARK INTER + INTRA:          -7.127
REMARK INTER:                  -7.458
REMARK INTRA:                   0.331
REMARK UNBOUND:                -0.164
REMARK SMILES O=c1oc2ccccc2c(O)c1C(c1ccccc1)c1c(O)c2ccccc2oc1=O
REMARK SMILES IDX 13 1 12 2 1 3 2 4 3 5 4 6 10 7 5 8 9 9 6 10 8 11 7 12 11 13
REMARK SMILES IDX 14 15 15 16 19 17 16 18 18 19 17 20 20 21 21 22 30 23 23 24
REMARK SMILES IDX 29 25 31 26 24 27 28 28 25 29 27 30 26 31 22 32
REMARK H PARENT 11 14 22 33
ROOT
ATOM      1  C   UNL     1       5.546  47.296  56.639  1.00  0.00     0.102 C 
ENDROOT
BRANCH   1   2
ATOM      2  C   UNL     1       4.362  48.270  56.619  1.00  0.00     0.092 A 
ATOM      3  O   UNL     1       3.772  47.795  58.878  1.00  0.00    -0.246 OA
ATOM      4  C   UNL     1       3.523  48.393  57.837  1.00  0.00     0.344 A 
ATOM      5  O   UNL     1       2.391  49.195  57.763  1.00  0.00    -0.422 OA
ATOM      6  C   UNL     1       2.107  49.977  56.634  1.00  0.00     0.142 A 
ATOM      7  C   UNL     1       4.036  48.976  55.518  1.00  0.00     0.138 A 
ATOM      8  C   UNL     1       1.002  50.825  56.720  1.00  0.00     0.048 A 
ATOM      9  C   UNL     1       2.916  49.919  55.505  1.00  0.00     0.060 A 
ATOM     10  C   UNL     1       0.702  51.660  55.649  1.00  0.00     0.004 A 
ATOM     11  C   UNL     1       2.616  50.787  54.445  1.00  0.00     0.016 A 
ATOM     12  C   UNL     1       1.513  51.647  54.515  1.00  0.00     0.001 A 
BRANCH   7  13
ATOM     13  O   UNL     1       4.754  48.825  54.346  1.00  0.00    -0.507 OA
ATOM     14  H   UNL     1       5.486  49.463  54.345  1.00  0.00     0.293 HD
ENDBRANCH   7  13
ENDBRANCH   1   2
BRANCH   1  15
ATOM     15  C   UNL     1       6.455  47.445  57.867  1.00  0.00    -0.035 A 
ATOM     16  C   UNL     1       6.808  46.301  58.607  1.00  0.00     0.005 A 
ATOM     17  C   UNL     1       6.952  48.688  58.291  1.00  0.00     0.005 A 
ATOM     18  C   UNL     1       7.644  46.396  59.722  1.00  0.00     0.000 A 
ATOM     19  C   UNL     1       7.787  48.781  59.408  1.00  0.00     0.000 A 
ATOM     20  C   UNL     1       8.135  47.637  60.121  1.00  0.00     0.000 A 
ENDBRANCH   1  15
BRANCH   1  21
ATOM     21  C   UNL     1       5.227  45.874  56.170  1.00  0.00     0.092 A 
ATOM     22  C   UNL     1       5.642  45.434  54.965  1.00  0.00     0.138 A 
ATOM     23  C   UNL     1       4.469  44.953  57.064  1.00  0.00     0.344 A 
ATOM     24  C   UNL     1       5.332  44.088  54.477  1.00  0.00     0.060 A 
ATOM     25  O   UNL     1       4.324  43.635  56.636  1.00  0.00    -0.422 OA
ATOM     26  O   UNL     1       4.014  45.275  58.154  1.00  0.00    -0.246 OA
ATOM     27  C   UNL     1       5.609  43.624  53.182  1.00  0.00     0.016 A 
ATOM     28  C   UNL     1       4.701  43.215  55.353  1.00  0.00     0.142 A 
ATOM     29  C   UNL     1       5.293  42.311  52.811  1.00  0.00     0.001 A 
ATOM     30  C   UNL     1       4.380  41.903  55.001  1.00  0.00     0.048 A 
ATOM     31  C   UNL     1       4.686  41.449  53.723  1.00  0.00     0.004 A 
BRANCH  22  32
ATOM     32  O   UNL     1       6.393  46.252  54.138  1.00  0.00    -0.507 OA
ATOM     33  H   UNL     1       6.068  46.152  53.227  1.00  0.00     0.293 HD
ENDBRANCH  22  32
ENDBRANCH   1  21
TORSDOF 5
ENDMDL
MODEL 19
REMARK VINA RESULT:    -5.632      2.775      5.940
REMARK INTER + INTRA:          -7.113
REMARK INTER:                  -6.774
REMARK INTRA:                  -0.340
REMARK UNBOUND:                -0.164
REMARK SMILES O=c1oc2ccccc2c(O)c1C(c1ccccc1)c1c(O)c2ccccc2oc1=O
REMARK SMILES IDX 13 1 12 2 1 3 2 4 3 5 4 6 10 7 5 8 9 9 6 10 8 11 7 12 11 13
REMARK SMILES IDX 14 15 15 16 19 17 16 18 18 19 17 20 20 21 21 22 30 23 23 24
REMARK SMILES IDX 29 25 31 26 24 27 28 28 25 29 27 30 26 31 22 32
REMARK H PARENT 11 14 22 33
ROOT
ATOM      1  C   UNL     1       4.041  46.382  54.470  1.00  0.00     0.102 C 
ENDROOT
BRANCH   1   2
ATOM      2  C   UNL     1       4.508  46.424  55.930  1.00  0.00     0.092 A 
ATOM      3  O   UNL     1       2.501  45.423  56.732  1.00  0.00    -0.246 OA
ATOM      4  C   UNL     1       3.591  45.924  56.983  1.00  0.00     0.344 A 
ATOM      5  O   UNL     1       3.987  46.073  58.307  1.00  0.00    -0.422 OA
ATOM      6  C   UNL     1       5.258  46.550  58.654  1.00  0.00     0.142 A 
ATOM      7  C   UNL     1       5.701  46.944  56.283  1.00  0.00     0.138 A 
ATOM      8  C   UNL     1       5.580  46.551  60.012  1.00  0.00     0.048 A 
ATOM      9  C   UNL     1       6.154  46.968  57.676  1.00  0.00     0.060 A 
ATOM     10  C   UNL     1       6.846  46.967  60.410  1.00  0.00     0.004 A 
ATOM     11  C   UNL     1       7.435  47.358  58.091  1.00  0.00     0.016 A 
ATOM     12  C   UNL     1       7.776  47.363  59.449  1.00  0.00     0.001 A 
BRANCH   7  13
ATOM     13  O   UNL     1       6.544  47.486  55.331  1.00  0.00    -0.507 OA
ATOM     14  H   UNL     1       6.235  48.381  55.116  1.00  0.00     0.293 HD
ENDBRANCH   7  13
ENDBRANCH   1   2
BRANCH   1  15
ATOM     15  C   UNL     1       4.289  47.686  53.699  1.00  0.00    -0.035 A 
ATOM     16  C   UNL     1       3.833  48.904  54.237  1.00  0.00     0.005 A 
ATOM     17  C   UNL     1       4.955  47.717  52.463  1.00  0.00     0.005 A 
ATOM     18  C   UNL     1       4.052  50.111  53.571  1.00  0.00     0.000 A 
ATOM     19  C   UNL     1       5.172  48.926  51.796  1.00  0.00     0.000 A 
ATOM     20  C   UNL     1       4.723  50.121  52.351  1.00  0.00     0.000 A 
ENDBRANCH   1  15
BRANCH   1  21
ATOM     21  C   UNL     1       4.320  45.068  53.735  1.00  0.00     0.092 A 
ATOM     22  C   UNL     1       3.315  44.228  53.417  1.00  0.00     0.138 A 
ATOM     23  C   UNL     1       5.716  44.720  53.344  1.00  0.00     0.344 A 
ATOM     24  C   UNL     1       3.552  42.952  52.736  1.00  0.00     0.060 A 
ATOM     25  O   UNL     1       5.888  43.579  52.566  1.00  0.00    -0.422 OA
ATOM     26  O   UNL     1       6.696  45.397  53.628  1.00  0.00    -0.246 OA
ATOM     27  C   UNL     1       2.571  41.975  52.509  1.00  0.00     0.016 A 
ATOM     28  C   UNL     1       4.843  42.682  52.304  1.00  0.00     0.142 A 
ATOM     29  C   UNL     1       2.887  40.790  51.830  1.00  0.00     0.001 A 
ATOM     30  C   UNL     1       5.175  41.509  51.625  1.00  0.00     0.048 A 
ATOM     31  C   UNL     1       4.187  40.562  51.382  1.00  0.00     0.004 A 
BRANCH  22  32
ATOM     32  O   UNL     1       2.005  44.552  53.722  1.00  0.00    -0.507 OA
ATOM     33  H   UNL     1       1.418  43.905  53.292  1.00  0.00     0.293 HD
ENDBRANCH  22  32
ENDBRANCH   1  21
TORSDOF 5
ENDMDL
MODEL 20
REMARK VINA RESULT:    -5.521      1.844      6.531
REMARK INTER + INTRA:          -6.976
REMARK INTER:                  -6.682
REMARK INTRA:                  -0.294
REMARK UNBOUND:                -0.164
REMARK SMILES O=c1oc2ccccc2c(O)c1C(c1ccccc1)c1c(O)c2ccccc2oc1=O
REMARK SMILES IDX 13 1 12 2 1 3 2 4 3 5 4 6 10 7 5 8 9 9 6 10 8 11 7 12 11 13
REMARK SMILES IDX 14 15 15 16 19 17 16 18 18 19 17 20 20 21 21 22 30 23 23 24
REMARK SMILES IDX 29 25 31 26 24 27 28 28 25 29 27 30 26 31 22 32
REMARK H PARENT 11 14 22 33
ROOT
ATOM      1  C   UNL     1       3.837  46.999  56.995  1.00  0.00     0.102 C 
ENDROOT
BRANCH   1   2
ATOM      2  C   UNL     1       3.681  45.580  56.434  1.00  0.00     0.092 A 
ATOM      3  O   UNL     1       1.412  45.415  57.141  1.00  0.00    -0.246 OA
ATOM      4  C   UNL     1       2.384  44.883  56.616  1.00  0.00     0.344 A 
ATOM      5  O   UNL     1       2.298  43.560  56.200  1.00  0.00    -0.422 OA
ATOM      6  C   UNL     1       3.342  42.929  55.509  1.00  0.00     0.142 A 
ATOM      7  C   UNL     1       4.699  44.936  55.828  1.00  0.00     0.138 A 
ATOM      8  C   UNL     1       3.096  41.635  55.046  1.00  0.00     0.048 A 
ATOM      9  C   UNL     1       4.543  43.587  55.277  1.00  0.00     0.060 A 
ATOM     10  C   UNL     1       4.077  40.979  54.310  1.00  0.00     0.004 A 
ATOM     11  C   UNL     1       5.512  42.924  54.510  1.00  0.00     0.016 A 
ATOM     12  C   UNL     1       5.282  41.626  54.036  1.00  0.00     0.001 A 
BRANCH   7  13
ATOM     13  O   UNL     1       5.941  45.531  55.712  1.00  0.00    -0.507 OA
ATOM     14  H   UNL     1       5.850  46.340  55.182  1.00  0.00     0.293 HD
ENDBRANCH   7  13
ENDBRANCH   1   2
BRANCH   1  15
ATOM     15  C   UNL     1       5.080  47.188  57.875  1.00  0.00    -0.035 A 
ATOM     16  C   UNL     1       5.371  46.238  58.872  1.00  0.00     0.005 A 
ATOM     17  C   UNL     1       5.949  48.281  57.729  1.00  0.00     0.005 A 
ATOM     18  C   UNL     1       6.501  46.369  59.683  1.00  0.00     0.000 A 
ATOM     19  C   UNL     1       7.078  48.412  58.542  1.00  0.00     0.000 A 
ATOM     20  C   UNL     1       7.355  47.456  59.516  1.00  0.00     0.000 A 
ENDBRANCH   1  15
BRANCH   1  21
ATOM     21  C   UNL     1       3.490  48.126  56.018  1.00  0.00     0.092 A 
ATOM     22  C   UNL     1       2.348  48.830  56.154  1.00  0.00     0.138 A 
ATOM     23  C   UNL     1       4.435  48.468  54.917  1.00  0.00     0.344 A 
ATOM     24  C   UNL     1       1.976  49.898  55.222  1.00  0.00     0.060 A 
ATOM     25  O   UNL     1       4.125  49.585  54.145  1.00  0.00    -0.422 OA
ATOM     26  O   UNL     1       5.471  47.858  54.689  1.00  0.00    -0.246 OA
ATOM     27  C   UNL     1       0.741  50.565  55.225  1.00  0.00     0.016 A 
ATOM     28  C   UNL     1       2.903  50.261  54.255  1.00  0.00     0.142 A 
ATOM     29  C   UNL     1       0.481  51.589  54.305  1.00  0.00     0.001 A 
ATOM     30  C   UNL     1       2.661  51.280  53.333  1.00  0.00     0.048 A 
ATOM     31  C   UNL     1       1.444  51.951  53.365  1.00  0.00     0.004 A 
BRANCH  22  32
ATOM     32  O   UNL     1       1.479  48.567  57.199  1.00  0.00    -0.507 OA
ATOM     33  H   UNL     1       1.541  47.622  57.422  1.00  0.00     0.293 HD
ENDBRANCH  22  32
ENDBRANCH   1  21
TORSDOF 5
ENDMDL
