MODEL 1
REMARK VINA RESULT:    -5.792      0.000      0.000
REMARK INTER + INTRA:          -8.070
REMARK INTER:                  -7.316
REMARK INTRA:                  -0.754
REMARK UNBOUND:                -0.754
REMARK SMILES CC(=O)C[C@H](c1ccccc1)c1c(O)c2ccccc2oc1=O
REMARK SMILES IDX 5 1 4 2 2 3 3 4 1 5 6 6 7 7 11 8 8 9 10 10 9 11 12 12 13 13
REMARK SMILES IDX 22 14 15 15 21 16 23 17 16 18 20 19 17 20 19 21 18 22 14 23
REMARK H PARENT 14 24
ROOT
ATOM      1  C   UNL     1       4.769  46.867  58.091  1.00  0.00     0.068 C 
ENDROOT
BRANCH   1   2
ATOM      2  C   UNL     1       5.667  46.520  59.295  1.00  0.00     0.088 C 
BRANCH   2   3
ATOM      3  C   UNL     1       7.096  46.958  59.044  1.00  0.00     0.130 C 
ATOM      4  O   UNL     1       8.017  46.140  59.005  1.00  0.00    -0.300 OA
ATOM      5  C   UNL     1       7.346  48.425  58.812  1.00  0.00     0.087 C 
ENDBRANCH   2   3
ENDBRANCH   1   2
BRANCH   1   6
ATOM      6  C   UNL     1       3.280  46.917  58.436  1.00  0.00    -0.040 A 
ATOM      7  C   UNL     1       2.280  46.979  57.454  1.00  0.00     0.004 A 
ATOM      8  C   UNL     1       2.888  46.920  59.786  1.00  0.00     0.004 A 
ATOM      9  C   UNL     1       0.930  47.029  57.811  1.00  0.00     0.000 A 
ATOM     10  C   UNL     1       1.539  46.968  60.142  1.00  0.00     0.000 A 
ATOM     11  C   UNL     1       0.560  47.022  59.153  1.00  0.00     0.000 A 
ENDBRANCH   1   6
BRANCH   1  12
ATOM     12  C   UNL     1       5.028  46.026  56.841  1.00  0.00     0.088 A 
ATOM     13  C   UNL     1       4.848  44.693  56.824  1.00  0.00     0.137 A 
ATOM     14  C   UNL     1       5.511  46.715  55.616  1.00  0.00     0.343 A 
ATOM     15  C   UNL     1       5.091  43.896  55.619  1.00  0.00     0.060 A 
ATOM     16  O   UNL     1       5.885  45.923  54.538  1.00  0.00    -0.422 OA
ATOM     17  O   UNL     1       5.603  47.935  55.540  1.00  0.00    -0.246 OA
ATOM     18  C   UNL     1       4.794  42.532  55.495  1.00  0.00     0.016 A 
ATOM     19  C   UNL     1       5.638  44.542  54.516  1.00  0.00     0.142 A 
ATOM     20  C   UNL     1       5.081  41.844  54.310  1.00  0.00     0.001 A 
ATOM     21  C   UNL     1       5.934  43.871  53.329  1.00  0.00     0.048 A 
ATOM     22  C   UNL     1       5.658  42.511  53.231  1.00  0.00     0.004 A 
BRANCH  13  23
ATOM     23  O   UNL     1       4.463  44.019  57.968  1.00  0.00    -0.507 OA
ATOM     24  H   UNL     1       3.593  44.352  58.247  1.00  0.00     0.293 HD
ENDBRANCH  13  23
ENDBRANCH   1  12
TORSDOF 5
ENDMDL
MODEL 2
REMARK VINA RESULT:    -5.761      1.276      3.522
REMARK INTER + INTRA:          -8.030
REMARK INTER:                  -7.506
REMARK INTRA:                  -0.525
REMARK UNBOUND:                -0.754
REMARK SMILES CC(=O)C[C@H](c1ccccc1)c1c(O)c2ccccc2oc1=O
REMARK SMILES IDX 5 1 4 2 2 3 3 4 1 5 6 6 7 7 11 8 8 9 10 10 9 11 12 12 13 13
REMARK SMILES IDX 22 14 15 15 21 16 23 17 16 18 20 19 17 20 19 21 18 22 14 23
REMARK H PARENT 14 24
ROOT
ATOM      1  C   UNL     1       4.523  46.820  57.928  1.00  0.00     0.068 C 
ENDROOT
BRANCH   1   2
ATOM      2  C   UNL     1       3.488  47.931  57.667  1.00  0.00     0.088 C 
BRANCH   2   3
ATOM      3  C   UNL     1       2.764  48.303  58.946  1.00  0.00     0.130 C 
ATOM      4  O   UNL     1       2.547  49.480  59.236  1.00  0.00    -0.300 OA
ATOM      5  C   UNL     1       2.292  47.181  59.832  1.00  0.00     0.087 C 
ENDBRANCH   2   3
ENDBRANCH   1   2
BRANCH   1   6
ATOM      6  C   UNL     1       5.804  47.323  58.596  1.00  0.00    -0.040 A 
ATOM      7  C   UNL     1       6.356  48.582  58.315  1.00  0.00     0.004 A 
ATOM      8  C   UNL     1       6.470  46.493  59.514  1.00  0.00     0.004 A 
ATOM      9  C   UNL     1       7.532  49.001  58.943  1.00  0.00     0.000 A 
ATOM     10  C   UNL     1       7.643  46.914  60.142  1.00  0.00     0.000 A 
ATOM     11  C   UNL     1       8.173  48.170  59.857  1.00  0.00     0.000 A 
ENDBRANCH   1   6
BRANCH   1  12
ATOM     12  C   UNL     1       4.831  45.940  56.716  1.00  0.00     0.088 A 
ATOM     13  C   UNL     1       4.713  44.600  56.755  1.00  0.00     0.137 A 
ATOM     14  C   UNL     1       5.291  46.598  55.466  1.00  0.00     0.343 A 
ATOM     15  C   UNL     1       5.003  43.765  55.586  1.00  0.00     0.060 A 
ATOM     16  O   UNL     1       5.709  45.779  54.425  1.00  0.00    -0.422 OA
ATOM     17  O   UNL     1       5.326  47.817  55.338  1.00  0.00    -0.246 OA
ATOM     18  C   UNL     1       4.770  42.385  55.519  1.00  0.00     0.016 A 
ATOM     19  C   UNL     1       5.528  44.389  54.460  1.00  0.00     0.142 A 
ATOM     20  C   UNL     1       5.098  41.661  54.366  1.00  0.00     0.001 A 
ATOM     21  C   UNL     1       5.863  43.683  53.305  1.00  0.00     0.048 A 
ATOM     22  C   UNL     1       5.652  42.308  53.262  1.00  0.00     0.004 A 
BRANCH  13  23
ATOM     23  O   UNL     1       4.351  43.958  57.924  1.00  0.00    -0.507 OA
ATOM     24  H   UNL     1       3.619  43.348  57.730  1.00  0.00     0.293 HD
ENDBRANCH  13  23
ENDBRANCH   1  12
TORSDOF 5
ENDMDL
MODEL 3
REMARK VINA RESULT:    -5.513      0.920      2.237
REMARK INTER + INTRA:          -7.718
REMARK INTER:                  -6.890
REMARK INTRA:                  -0.827
REMARK UNBOUND:                -0.754
REMARK SMILES CC(=O)C[C@H](c1ccccc1)c1c(O)c2ccccc2oc1=O
REMARK SMILES IDX 5 1 4 2 2 3 3 4 1 5 6 6 7 7 11 8 8 9 10 10 9 11 12 12 13 13
REMARK SMILES IDX 22 14 15 15 21 16 23 17 16 18 20 19 17 20 19 21 18 22 14 23
REMARK H PARENT 14 24
ROOT
ATOM      1  C   UNL     1       4.751  46.257  58.011  1.00  0.00     0.068 C 
ENDROOT
BRANCH   1   2
ATOM      2  C   UNL     1       5.641  46.079  59.257  1.00  0.00     0.088 C 
BRANCH   2   3
ATOM      3  C   UNL     1       6.995  46.729  59.047  1.00  0.00     0.130 C 
ATOM      4  O   UNL     1       7.422  46.963  57.915  1.00  0.00    -0.300 OA
ATOM      5  C   UNL     1       7.785  47.106  60.272  1.00  0.00     0.087 C 
ENDBRANCH   2   3
ENDBRANCH   1   2
BRANCH   1   6
ATOM      6  C   UNL     1       3.353  46.787  58.331  1.00  0.00    -0.040 A 
ATOM      7  C   UNL     1       2.410  47.080  57.334  1.00  0.00     0.004 A 
ATOM      8  C   UNL     1       2.995  47.010  59.672  1.00  0.00     0.004 A 
ATOM      9  C   UNL     1       1.145  47.569  57.669  1.00  0.00     0.000 A 
ATOM     10  C   UNL     1       1.729  47.497  60.006  1.00  0.00     0.000 A 
ATOM     11  C   UNL     1       0.804  47.775  59.004  1.00  0.00     0.000 A 
ENDBRANCH   1   6
BRANCH   1  12
ATOM     12  C   UNL     1       4.692  45.036  57.093  1.00  0.00     0.088 A 
ATOM     13  C   UNL     1       5.207  45.049  55.850  1.00  0.00     0.137 A 
ATOM     14  C   UNL     1       4.025  43.807  57.596  1.00  0.00     0.343 A 
ATOM     15  C   UNL     1       5.152  43.872  54.980  1.00  0.00     0.060 A 
ATOM     16  O   UNL     1       3.845  42.761  56.700  1.00  0.00    -0.422 OA
ATOM     17  O   UNL     1       3.621  43.703  58.749  1.00  0.00    -0.246 OA
ATOM     18  C   UNL     1       5.787  43.775  53.734  1.00  0.00     0.016 A 
ATOM     19  C   UNL     1       4.437  42.767  55.429  1.00  0.00     0.142 A 
ATOM     20  C   UNL     1       5.663  42.616  52.958  1.00  0.00     0.001 A 
ATOM     21  C   UNL     1       4.300  41.607  54.667  1.00  0.00     0.048 A 
ATOM     22  C   UNL     1       4.913  41.536  53.420  1.00  0.00     0.004 A 
BRANCH  13  23
ATOM     23  O   UNL     1       5.775  46.199  55.333  1.00  0.00    -0.507 OA
ATOM     24  H   UNL     1       5.157  46.938  55.469  1.00  0.00     0.293 HD
ENDBRANCH  13  23
ENDBRANCH   1  12
TORSDOF 5
ENDMDL
MODEL 4
REMARK VINA RESULT:    -5.302      1.453      4.211
REMARK INTER + INTRA:          -7.451
REMARK INTER:                  -6.785
REMARK INTRA:                  -0.667
REMARK UNBOUND:                -0.754
REMARK SMILES CC(=O)C[C@H](c1ccccc1)c1c(O)c2ccccc2oc1=O
REMARK SMILES IDX 5 1 4 2 2 3 3 4 1 5 6 6 7 7 11 8 8 9 10 10 9 11 12 12 13 13
REMARK SMILES IDX 22 14 15 15 21 16 23 17 16 18 20 19 17 20 19 21 18 22 14 23
REMARK H PARENT 14 24
ROOT
ATOM      1  C   UNL     1       4.234  46.660  58.121  1.00  0.00     0.068 C 
ENDROOT
BRANCH   1   2
ATOM      2  C   UNL     1       3.372  47.773  57.494  1.00  0.00     0.088 C 
BRANCH   2   3
ATOM      3  C   UNL     1       2.205  48.123  58.398  1.00  0.00     0.130 C 
ATOM      4  O   UNL     1       1.352  48.940  58.050  1.00  0.00    -0.300 OA
ATOM      5  C   UNL     1       2.111  47.411  59.722  1.00  0.00     0.087 C 
ENDBRANCH   2   3
ENDBRANCH   1   2
BRANCH   1   6
ATOM      6  C   UNL     1       5.577  47.157  58.656  1.00  0.00    -0.040 A 
ATOM      7  C   UNL     1       6.339  46.426  59.580  1.00  0.00     0.004 A 
ATOM      8  C   UNL     1       6.068  48.402  58.226  1.00  0.00     0.004 A 
ATOM      9  C   UNL     1       7.559  46.919  60.050  1.00  0.00     0.000 A 
ATOM     10  C   UNL     1       7.289  48.893  58.694  1.00  0.00     0.000 A 
ATOM     11  C   UNL     1       8.034  48.150  59.605  1.00  0.00     0.000 A 
ENDBRANCH   1   6
BRANCH   1  12
ATOM     12  C   UNL     1       4.404  45.418  57.245  1.00  0.00     0.088 A 
ATOM     13  C   UNL     1       4.966  45.474  56.024  1.00  0.00     0.137 A 
ATOM     14  C   UNL     1       3.912  44.116  57.765  1.00  0.00     0.343 A 
ATOM     15  C   UNL     1       5.132  44.277  55.195  1.00  0.00     0.060 A 
ATOM     16  O   UNL     1       3.935  43.029  56.901  1.00  0.00    -0.422 OA
ATOM     17  O   UNL     1       3.478  43.984  58.904  1.00  0.00    -0.246 OA
ATOM     18  C   UNL     1       5.829  44.244  53.979  1.00  0.00     0.016 A 
ATOM     19  C   UNL     1       4.575  43.089  55.655  1.00  0.00     0.142 A 
ATOM     20  C   UNL     1       5.919  43.058  53.241  1.00  0.00     0.001 A 
ATOM     21  C   UNL     1       4.653  41.900  54.930  1.00  0.00     0.048 A 
ATOM     22  C   UNL     1       5.324  41.888  53.712  1.00  0.00     0.004 A 
BRANCH  13  23
ATOM     23  O   UNL     1       5.372  46.683  55.489  1.00  0.00    -0.507 OA
ATOM     24  H   UNL     1       5.612  47.280  56.218  1.00  0.00     0.293 HD
ENDBRANCH  13  23
ENDBRANCH   1  12
TORSDOF 5
ENDMDL
MODEL 5
REMARK VINA RESULT:    -5.218      2.439      4.397
REMARK INTER + INTRA:          -7.345
REMARK INTER:                  -7.199
REMARK INTRA:                  -0.146
REMARK UNBOUND:                -0.754
REMARK SMILES CC(=O)C[C@H](c1ccccc1)c1c(O)c2ccccc2oc1=O
REMARK SMILES IDX 5 1 4 2 2 3 3 4 1 5 6 6 7 7 11 8 8 9 10 10 9 11 12 12 13 13
REMARK SMILES IDX 22 14 15 15 21 16 23 17 16 18 20 19 17 20 19 21 18 22 14 23
REMARK H PARENT 14 24
ROOT
ATOM      1  C   UNL     1       5.600  47.027  57.057  1.00  0.00     0.068 C 
ENDROOT
BRANCH   1   2
ATOM      2  C   UNL     1       5.869  48.228  57.985  1.00  0.00     0.088 C 
BRANCH   2   3
ATOM      3  C   UNL     1       7.156  48.029  58.762  1.00  0.00     0.130 C 
ATOM      4  O   UNL     1       7.754  48.985  59.259  1.00  0.00    -0.300 OA
ATOM      5  C   UNL     1       7.659  46.620  58.931  1.00  0.00     0.087 C 
ENDBRANCH   2   3
ENDBRANCH   1   2
BRANCH   1   6
ATOM      6  C   UNL     1       5.220  47.430  55.632  1.00  0.00    -0.040 A 
ATOM      7  C   UNL     1       4.203  48.356  55.356  1.00  0.00     0.004 A 
ATOM      8  C   UNL     1       5.897  46.843  54.549  1.00  0.00     0.004 A 
ATOM      9  C   UNL     1       3.882  48.693  54.038  1.00  0.00     0.000 A 
ATOM     10  C   UNL     1       5.577  47.182  53.233  1.00  0.00     0.000 A 
ATOM     11  C   UNL     1       4.570  48.108  52.978  1.00  0.00     0.000 A 
ENDBRANCH   1   6
BRANCH   1  12
ATOM     12  C   UNL     1       4.631  45.989  57.625  1.00  0.00     0.088 A 
ATOM     13  C   UNL     1       4.778  44.672  57.397  1.00  0.00     0.137 A 
ATOM     14  C   UNL     1       3.483  46.468  58.438  1.00  0.00     0.343 A 
ATOM     15  C   UNL     1       3.849  43.684  57.951  1.00  0.00     0.060 A 
ATOM     16  O   UNL     1       2.531  45.532  58.819  1.00  0.00    -0.422 OA
ATOM     17  O   UNL     1       3.349  47.644  58.759  1.00  0.00    -0.246 OA
ATOM     18  C   UNL     1       4.022  42.296  57.867  1.00  0.00     0.016 A 
ATOM     19  C   UNL     1       2.727  44.157  58.623  1.00  0.00     0.142 A 
ATOM     20  C   UNL     1       3.070  41.424  58.408  1.00  0.00     0.001 A 
ATOM     21  C   UNL     1       1.767  43.302  59.165  1.00  0.00     0.048 A 
ATOM     22  C   UNL     1       1.938  41.926  59.049  1.00  0.00     0.004 A 
BRANCH  13  23
ATOM     23  O   UNL     1       5.799  44.205  56.589  1.00  0.00    -0.507 OA
ATOM     24  H   UNL     1       6.470  44.904  56.501  1.00  0.00     0.293 HD
ENDBRANCH  13  23
ENDBRANCH   1  12
TORSDOF 5
ENDMDL
MODEL 6
REMARK VINA RESULT:    -5.197      2.583      4.878
REMARK INTER + INTRA:          -7.318
REMARK INTER:                  -7.045
REMARK INTRA:                  -0.273
REMARK UNBOUND:                -0.754
REMARK SMILES CC(=O)C[C@H](c1ccccc1)c1c(O)c2ccccc2oc1=O
REMARK SMILES IDX 5 1 4 2 2 3 3 4 1 5 6 6 7 7 11 8 8 9 10 10 9 11 12 12 13 13
REMARK SMILES IDX 22 14 15 15 21 16 23 17 16 18 20 19 17 20 19 21 18 22 14 23
REMARK H PARENT 14 24
ROOT
ATOM      1  C   UNL     1       5.374  46.706  57.937  1.00  0.00     0.068 C 
ENDROOT
BRANCH   1   2
ATOM      2  C   UNL     1       6.908  46.783  58.057  1.00  0.00     0.088 C 
BRANCH   2   3
ATOM      3  C   UNL     1       7.315  47.815  59.091  1.00  0.00     0.130 C 
ATOM      4  O   UNL     1       7.226  49.021  58.857  1.00  0.00    -0.300 OA
ATOM      5  C   UNL     1       7.803  47.312  60.424  1.00  0.00     0.087 C 
ENDBRANCH   2   3
ENDBRANCH   1   2
BRANCH   1   6
ATOM      6  C   UNL     1       4.846  45.280  57.774  1.00  0.00    -0.040 A 
ATOM      7  C   UNL     1       3.891  44.724  58.638  1.00  0.00     0.004 A 
ATOM      8  C   UNL     1       5.344  44.480  56.730  1.00  0.00     0.004 A 
ATOM      9  C   UNL     1       3.439  43.414  58.457  1.00  0.00     0.000 A 
ATOM     10  C   UNL     1       4.890  43.172  56.549  1.00  0.00     0.000 A 
ATOM     11  C   UNL     1       3.937  42.640  57.412  1.00  0.00     0.000 A 
ENDBRANCH   1   6
BRANCH   1  12
ATOM     12  C   UNL     1       4.768  47.651  56.899  1.00  0.00     0.088 A 
ATOM     13  C   UNL     1       3.651  48.359  57.142  1.00  0.00     0.137 A 
ATOM     14  C   UNL     1       5.436  47.768  55.577  1.00  0.00     0.343 A 
ATOM     15  C   UNL     1       3.082  49.269  56.144  1.00  0.00     0.060 A 
ATOM     16  O   UNL     1       4.794  48.510  54.596  1.00  0.00    -0.422 OA
ATOM     17  O   UNL     1       6.507  47.222  55.331  1.00  0.00    -0.246 OA
ATOM     18  C   UNL     1       2.005  50.135  56.380  1.00  0.00     0.016 A 
ATOM     19  C   UNL     1       3.662  49.288  54.880  1.00  0.00     0.142 A 
ATOM     20  C   UNL     1       1.511  50.955  55.359  1.00  0.00     0.001 A 
ATOM     21  C   UNL     1       3.180  50.097  53.850  1.00  0.00     0.048 A 
ATOM     22  C   UNL     1       2.093  50.930  54.092  1.00  0.00     0.004 A 
BRANCH  13  23
ATOM     23  O   UNL     1       2.972  48.220  58.338  1.00  0.00    -0.507 OA
ATOM     24  H   UNL     1       3.413  48.767  59.011  1.00  0.00     0.293 HD
ENDBRANCH  13  23
ENDBRANCH   1  12
TORSDOF 5
ENDMDL
MODEL 7
REMARK VINA RESULT:    -5.178      2.055      6.147
REMARK INTER + INTRA:          -7.294
REMARK INTER:                  -6.614
REMARK INTRA:                  -0.680
REMARK UNBOUND:                -0.754
REMARK SMILES CC(=O)C[C@H](c1ccccc1)c1c(O)c2ccccc2oc1=O
REMARK SMILES IDX 5 1 4 2 2 3 3 4 1 5 6 6 7 7 11 8 8 9 10 10 9 11 12 12 13 13
REMARK SMILES IDX 22 14 15 15 21 16 23 17 16 18 20 19 17 20 19 21 18 22 14 23
REMARK H PARENT 14 24
ROOT
ATOM      1  C   UNL     1       5.565  46.080  54.049  1.00  0.00     0.068 C 
ENDROOT
BRANCH   1   2
ATOM      2  C   UNL     1       5.068  46.585  52.681  1.00  0.00     0.088 C 
BRANCH   2   3
ATOM      3  C   UNL     1       5.439  48.041  52.478  1.00  0.00     0.130 C 
ATOM      4  O   UNL     1       6.617  48.396  52.420  1.00  0.00    -0.300 OA
ATOM      5  C   UNL     1       4.316  49.032  52.320  1.00  0.00     0.087 C 
ENDBRANCH   2   3
ENDBRANCH   1   2
BRANCH   1   6
ATOM      6  C   UNL     1       5.512  44.558  54.194  1.00  0.00    -0.040 A 
ATOM      7  C   UNL     1       5.512  43.918  55.442  1.00  0.00     0.004 A 
ATOM      8  C   UNL     1       5.481  43.760  53.036  1.00  0.00     0.004 A 
ATOM      9  C   UNL     1       5.468  42.524  55.530  1.00  0.00     0.000 A 
ATOM     10  C   UNL     1       5.435  42.368  53.125  1.00  0.00     0.000 A 
ATOM     11  C   UNL     1       5.428  41.750  54.373  1.00  0.00     0.000 A 
ENDBRANCH   1   6
BRANCH   1  12
ATOM     12  C   UNL     1       4.935  46.780  55.254  1.00  0.00     0.088 A 
ATOM     13  C   UNL     1       3.607  46.782  55.466  1.00  0.00     0.137 A 
ATOM     14  C   UNL     1       5.830  47.492  56.203  1.00  0.00     0.343 A 
ATOM     15  C   UNL     1       3.012  47.449  56.628  1.00  0.00     0.060 A 
ATOM     16  O   UNL     1       5.234  48.247  57.204  1.00  0.00    -0.422 OA
ATOM     17  O   UNL     1       7.052  47.445  56.116  1.00  0.00    -0.246 OA
ATOM     18  C   UNL     1       1.658  47.374  56.980  1.00  0.00     0.016 A 
ATOM     19  C   UNL     1       3.854  48.194  57.447  1.00  0.00     0.142 A 
ATOM     20  C   UNL     1       1.172  48.063  58.097  1.00  0.00     0.001 A 
ATOM     21  C   UNL     1       3.385  48.890  58.562  1.00  0.00     0.048 A 
ATOM     22  C   UNL     1       2.033  48.827  58.883  1.00  0.00     0.004 A 
BRANCH  13  23
ATOM     23  O   UNL     1       2.747  46.184  54.564  1.00  0.00    -0.507 OA
ATOM     24  H   UNL     1       1.838  46.463  54.770  1.00  0.00     0.293 HD
ENDBRANCH  13  23
ENDBRANCH   1  12
TORSDOF 5
ENDMDL
MODEL 8
REMARK VINA RESULT:    -5.166      1.451      5.694
REMARK INTER + INTRA:          -7.279
REMARK INTER:                  -6.495
REMARK INTRA:                  -0.784
REMARK UNBOUND:                -0.754
REMARK SMILES CC(=O)C[C@H](c1ccccc1)c1c(O)c2ccccc2oc1=O
REMARK SMILES IDX 5 1 4 2 2 3 3 4 1 5 6 6 7 7 11 8 8 9 10 10 9 11 12 12 13 13
REMARK SMILES IDX 22 14 15 15 21 16 23 17 16 18 20 19 17 20 19 21 18 22 14 23
REMARK H PARENT 14 24
ROOT
ATOM      1  C   UNL     1       3.697  45.445  55.590  1.00  0.00     0.068 C 
ENDROOT
BRANCH   1   2
ATOM      2  C   UNL     1       2.343  45.226  56.292  1.00  0.00     0.088 C 
BRANCH   2   3
ATOM      3  C   UNL     1       1.673  46.553  56.594  1.00  0.00     0.130 C 
ATOM      4  O   UNL     1       1.359  47.328  55.689  1.00  0.00    -0.300 OA
ATOM      5  C   UNL     1       1.378  46.874  58.035  1.00  0.00     0.087 C 
ENDBRANCH   2   3
ENDBRANCH   1   2
BRANCH   1   6
ATOM      6  C   UNL     1       4.318  44.157  55.047  1.00  0.00    -0.040 A 
ATOM      7  C   UNL     1       3.834  42.885  55.385  1.00  0.00     0.004 A 
ATOM      8  C   UNL     1       5.429  44.240  54.189  1.00  0.00     0.004 A 
ATOM      9  C   UNL     1       4.434  41.732  54.871  1.00  0.00     0.000 A 
ATOM     10  C   UNL     1       6.026  43.088  53.674  1.00  0.00     0.000 A 
ATOM     11  C   UNL     1       5.527  41.834  54.015  1.00  0.00     0.000 A 
ENDBRANCH   1   6
BRANCH   1  12
ATOM     12  C   UNL     1       4.709  46.258  56.398  1.00  0.00     0.088 A 
ATOM     13  C   UNL     1       5.133  45.869  57.614  1.00  0.00     0.137 A 
ATOM     14  C   UNL     1       5.220  47.527  55.816  1.00  0.00     0.343 A 
ATOM     15  C   UNL     1       6.109  46.651  58.378  1.00  0.00     0.060 A 
ATOM     16  O   UNL     1       6.018  48.327  56.622  1.00  0.00    -0.422 OA
ATOM     17  O   UNL     1       4.945  47.885  54.676  1.00  0.00    -0.246 OA
ATOM     18  C   UNL     1       6.692  46.235  59.583  1.00  0.00     0.016 A 
ATOM     19  C   UNL     1       6.497  47.883  57.863  1.00  0.00     0.142 A 
ATOM     20  C   UNL     1       7.601  47.057  60.257  1.00  0.00     0.001 A 
ATOM     21  C   UNL     1       7.399  48.717  58.524  1.00  0.00     0.048 A 
ATOM     22  C   UNL     1       7.948  48.302  59.733  1.00  0.00     0.004 A 
BRANCH  13  23
ATOM     23  O   UNL     1       4.624  44.728  58.207  1.00  0.00    -0.507 OA
ATOM     24  H   UNL     1       4.464  44.064  57.514  1.00  0.00     0.293 HD
ENDBRANCH  13  23
ENDBRANCH   1  12
TORSDOF 5
ENDMDL
MODEL 9
REMARK VINA RESULT:    -5.127      2.550      4.915
REMARK INTER + INTRA:          -7.230
REMARK INTER:                  -7.044
REMARK INTRA:                  -0.186
REMARK UNBOUND:                -0.754
REMARK SMILES CC(=O)C[C@H](c1ccccc1)c1c(O)c2ccccc2oc1=O
REMARK SMILES IDX 5 1 4 2 2 3 3 4 1 5 6 6 7 7 11 8 8 9 10 10 9 11 12 12 13 13
REMARK SMILES IDX 22 14 15 15 21 16 23 17 16 18 20 19 17 20 19 21 18 22 14 23
REMARK H PARENT 14 24
ROOT
ATOM      1  C   UNL     1       4.447  46.290  57.165  1.00  0.00     0.068 C 
ENDROOT
BRANCH   1   2
ATOM      2  C   UNL     1       4.675  46.549  55.663  1.00  0.00     0.088 C 
BRANCH   2   3
ATOM      3  C   UNL     1       3.869  47.745  55.195  1.00  0.00     0.130 C 
ATOM      4  O   UNL     1       4.422  48.781  54.823  1.00  0.00    -0.300 OA
ATOM      5  C   UNL     1       2.369  47.609  55.172  1.00  0.00     0.087 C 
ENDBRANCH   2   3
ENDBRANCH   1   2
BRANCH   1   6
ATOM      6  C   UNL     1       5.576  46.814  58.053  1.00  0.00    -0.040 A 
ATOM      7  C   UNL     1       5.892  46.236  59.292  1.00  0.00     0.004 A 
ATOM      8  C   UNL     1       6.321  47.928  57.629  1.00  0.00     0.004 A 
ATOM      9  C   UNL     1       6.928  46.750  60.076  1.00  0.00     0.000 A 
ATOM     10  C   UNL     1       7.358  48.439  58.413  1.00  0.00     0.000 A 
ATOM     11  C   UNL     1       7.661  47.848  59.636  1.00  0.00     0.000 A 
ENDBRANCH   1   6
BRANCH   1  12
ATOM     12  C   UNL     1       4.083  44.846  57.513  1.00  0.00     0.088 A 
ATOM     13  C   UNL     1       3.107  44.544  58.389  1.00  0.00     0.137 A 
ATOM     14  C   UNL     1       4.852  43.750  56.868  1.00  0.00     0.343 A 
ATOM     15  C   UNL     1       2.760  43.157  58.710  1.00  0.00     0.060 A 
ATOM     16  O   UNL     1       4.614  42.454  57.305  1.00  0.00    -0.422 OA
ATOM     17  O   UNL     1       5.686  43.958  55.993  1.00  0.00    -0.246 OA
ATOM     18  C   UNL     1       1.671  42.774  59.504  1.00  0.00     0.016 A 
ATOM     19  C   UNL     1       3.557  42.150  58.175  1.00  0.00     0.142 A 
ATOM     20  C   UNL     1       1.426  41.424  59.777  1.00  0.00     0.001 A 
ATOM     21  C   UNL     1       3.329  40.800  58.441  1.00  0.00     0.048 A 
ATOM     22  C   UNL     1       2.260  40.437  59.253  1.00  0.00     0.004 A 
BRANCH  13  23
ATOM     23  O   UNL     1       2.421  45.544  59.052  1.00  0.00    -0.507 OA
ATOM     24  H   UNL     1       1.912  45.143  59.778  1.00  0.00     0.293 HD
ENDBRANCH  13  23
ENDBRANCH   1  12
TORSDOF 5
ENDMDL
MODEL 10
REMARK VINA RESULT:    -5.076      2.503      4.906
REMARK INTER + INTRA:          -7.166
REMARK INTER:                  -7.085
REMARK INTRA:                  -0.081
REMARK UNBOUND:                -0.754
REMARK SMILES CC(=O)C[C@H](c1ccccc1)c1c(O)c2ccccc2oc1=O
REMARK SMILES IDX 5 1 4 2 2 3 3 4 1 5 6 6 7 7 11 8 8 9 10 10 9 11 12 12 13 13
REMARK SMILES IDX 22 14 15 15 21 16 23 17 16 18 20 19 17 20 19 21 18 22 14 23
REMARK H PARENT 14 24
ROOT
ATOM      1  C   UNL     1       4.467  46.596  57.257  1.00  0.00     0.068 C 
ENDROOT
BRANCH   1   2
ATOM      2  C   UNL     1       4.838  46.408  55.773  1.00  0.00     0.088 C 
BRANCH   2   3
ATOM      3  C   UNL     1       4.481  47.642  54.968  1.00  0.00     0.130 C 
ATOM      4  O   UNL     1       5.293  48.159  54.199  1.00  0.00    -0.300 OA
ATOM      5  C   UNL     1       3.088  48.195  55.119  1.00  0.00     0.087 C 
ENDBRANCH   2   3
ENDBRANCH   1   2
BRANCH   1   6
ATOM      6  C   UNL     1       5.633  47.084  58.119  1.00  0.00    -0.040 A 
ATOM      7  C   UNL     1       6.289  48.301  57.883  1.00  0.00     0.004 A 
ATOM      8  C   UNL     1       6.082  46.280  59.181  1.00  0.00     0.004 A 
ATOM      9  C   UNL     1       7.354  48.707  58.692  1.00  0.00     0.000 A 
ATOM     10  C   UNL     1       7.145  46.687  59.990  1.00  0.00     0.000 A 
ATOM     11  C   UNL     1       7.780  47.902  59.745  1.00  0.00     0.000 A 
ENDBRANCH   1   6
BRANCH   1  12
ATOM     12  C   UNL     1       3.761  45.399  57.893  1.00  0.00     0.088 A 
ATOM     13  C   UNL     1       4.119  44.131  57.625  1.00  0.00     0.137 A 
ATOM     14  C   UNL     1       2.631  45.659  58.823  1.00  0.00     0.343 A 
ATOM     15  C   UNL     1       3.441  42.989  58.245  1.00  0.00     0.060 A 
ATOM     16  O   UNL     1       1.905  44.566  59.273  1.00  0.00    -0.422 OA
ATOM     17  O   UNL     1       2.320  46.791  59.179  1.00  0.00    -0.246 OA
ATOM     18  C   UNL     1       3.852  41.655  58.116  1.00  0.00     0.016 A 
ATOM     19  C   UNL     1       2.324  43.249  59.031  1.00  0.00     0.142 A 
ATOM     20  C   UNL     1       3.130  40.624  58.728  1.00  0.00     0.001 A 
ATOM     21  C   UNL     1       1.591  42.233  59.645  1.00  0.00     0.048 A 
ATOM     22  C   UNL     1       1.995  40.912  59.485  1.00  0.00     0.004 A 
BRANCH  13  23
ATOM     23  O   UNL     1       5.123  43.858  56.713  1.00  0.00    -0.507 OA
ATOM     24  H   UNL     1       4.755  43.309  56.001  1.00  0.00     0.293 HD
ENDBRANCH  13  23
ENDBRANCH   1  12
TORSDOF 5
ENDMDL
MODEL 11
REMARK VINA RESULT:    -5.060      9.981     12.718
REMARK INTER + INTRA:          -7.145
REMARK INTER:                  -6.373
REMARK INTRA:                  -0.772
REMARK UNBOUND:                -0.754
REMARK SMILES CC(=O)C[C@H](c1ccccc1)c1c(O)c2ccccc2oc1=O
REMARK SMILES IDX 5 1 4 2 2 3 3 4 1 5 6 6 7 7 11 8 8 9 10 10 9 11 12 12 13 13
REMARK SMILES IDX 22 14 15 15 21 16 23 17 16 18 20 19 17 20 19 21 18 22 14 23
REMARK H PARENT 14 24
ROOT
ATOM      1  C   UNL     1       3.361  56.043  58.032  1.00  0.00     0.068 C 
ENDROOT
BRANCH   1   2
ATOM      2  C   UNL     1       4.662  55.341  57.596  1.00  0.00     0.088 C 
BRANCH   2   3
ATOM      3  C   UNL     1       4.855  54.045  58.359  1.00  0.00     0.130 C 
ATOM      4  O   UNL     1       3.891  53.366  58.716  1.00  0.00    -0.300 OA
ATOM      5  C   UNL     1       6.267  53.603  58.637  1.00  0.00     0.087 C 
ENDBRANCH   2   3
ENDBRANCH   1   2
BRANCH   1   6
ATOM      6  C   UNL     1       2.802  57.000  56.978  1.00  0.00    -0.040 A 
ATOM      7  C   UNL     1       1.494  57.505  57.035  1.00  0.00     0.004 A 
ATOM      8  C   UNL     1       3.616  57.381  55.897  1.00  0.00     0.004 A 
ATOM      9  C   UNL     1       1.019  58.373  56.048  1.00  0.00     0.000 A 
ATOM     10  C   UNL     1       3.141  58.250  54.913  1.00  0.00     0.000 A 
ATOM     11  C   UNL     1       1.843  58.747  54.990  1.00  0.00     0.000 A 
ENDBRANCH   1   6
BRANCH   1  12
ATOM     12  C   UNL     1       3.425  56.702  59.410  1.00  0.00     0.088 A 
ATOM     13  C   UNL     1       2.714  56.244  60.456  1.00  0.00     0.137 A 
ATOM     14  C   UNL     1       4.293  57.896  59.581  1.00  0.00     0.343 A 
ATOM     15  C   UNL     1       2.788  56.877  61.776  1.00  0.00     0.060 A 
ATOM     16  O   UNL     1       4.225  58.571  60.793  1.00  0.00    -0.422 OA
ATOM     17  O   UNL     1       5.036  58.302  58.694  1.00  0.00    -0.246 OA
ATOM     18  C   UNL     1       2.183  56.371  62.935  1.00  0.00     0.016 A 
ATOM     19  C   UNL     1       3.524  58.051  61.891  1.00  0.00     0.142 A 
ATOM     20  C   UNL     1       2.288  57.055  64.152  1.00  0.00     0.001 A 
ATOM     21  C   UNL     1       3.636  58.746  63.094  1.00  0.00     0.048 A 
ATOM     22  C   UNL     1       3.007  58.246  64.230  1.00  0.00     0.004 A 
BRANCH  13  23
ATOM     23  O   UNL     1       1.849  55.176  60.308  1.00  0.00    -0.507 OA
ATOM     24  H   UNL     1       1.952  54.815  59.411  1.00  0.00     0.293 HD
ENDBRANCH  13  23
ENDBRANCH   1  12
TORSDOF 5
ENDMDL
MODEL 12
REMARK VINA RESULT:    -5.033      2.416      5.111
REMARK INTER + INTRA:          -7.111
REMARK INTER:                  -6.532
REMARK INTRA:                  -0.579
REMARK UNBOUND:                -0.754
REMARK SMILES CC(=O)C[C@H](c1ccccc1)c1c(O)c2ccccc2oc1=O
REMARK SMILES IDX 5 1 4 2 2 3 3 4 1 5 6 6 7 7 11 8 8 9 10 10 9 11 12 12 13 13
REMARK SMILES IDX 22 14 15 15 21 16 23 17 16 18 20 19 17 20 19 21 18 22 14 23
REMARK H PARENT 14 24
ROOT
ATOM      1  C   UNL     1       5.548  46.232  57.416  1.00  0.00     0.068 C 
ENDROOT
BRANCH   1   2
ATOM      2  C   UNL     1       4.566  45.309  58.164  1.00  0.00     0.088 C 
BRANCH   2   3
ATOM      3  C   UNL     1       3.987  44.268  57.227  1.00  0.00     0.130 C 
ATOM      4  O   UNL     1       2.770  44.166  57.060  1.00  0.00    -0.300 OA
ATOM      5  C   UNL     1       4.953  43.384  56.483  1.00  0.00     0.087 C 
ENDBRANCH   2   3
ENDBRANCH   1   2
BRANCH   1   6
ATOM      6  C   UNL     1       6.469  47.024  58.345  1.00  0.00    -0.040 A 
ATOM      7  C   UNL     1       6.895  48.328  58.053  1.00  0.00     0.004 A 
ATOM      8  C   UNL     1       6.926  46.425  59.532  1.00  0.00     0.004 A 
ATOM      9  C   UNL     1       7.742  49.016  58.926  1.00  0.00     0.000 A 
ATOM     10  C   UNL     1       7.770  47.113  60.405  1.00  0.00     0.000 A 
ATOM     11  C   UNL     1       8.177  48.409  60.102  1.00  0.00     0.000 A 
ENDBRANCH   1   6
BRANCH   1  12
ATOM     12  C   UNL     1       4.898  47.135  56.366  1.00  0.00     0.088 A 
ATOM     13  C   UNL     1       5.288  47.131  55.079  1.00  0.00     0.137 A 
ATOM     14  C   UNL     1       3.814  48.053  56.800  1.00  0.00     0.343 A 
ATOM     15  C   UNL     1       4.654  47.994  54.078  1.00  0.00     0.060 A 
ATOM     16  O   UNL     1       3.339  48.970  55.873  1.00  0.00    -0.422 OA
ATOM     17  O   UNL     1       3.351  48.035  57.936  1.00  0.00    -0.246 OA
ATOM     18  C   UNL     1       4.917  47.941  52.703  1.00  0.00     0.016 A 
ATOM     19  C   UNL     1       3.714  48.917  54.522  1.00  0.00     0.142 A 
ATOM     20  C   UNL     1       4.280  48.821  51.820  1.00  0.00     0.001 A 
ATOM     21  C   UNL     1       3.072  49.803  53.657  1.00  0.00     0.048 A 
ATOM     22  C   UNL     1       3.364  49.757  52.297  1.00  0.00     0.004 A 
BRANCH  13  23
ATOM     23  O   UNL     1       6.338  46.335  54.662  1.00  0.00    -0.507 OA
ATOM     24  H   UNL     1       6.075  45.876  53.845  1.00  0.00     0.293 HD
ENDBRANCH  13  23
ENDBRANCH   1  12
TORSDOF 5
ENDMDL
MODEL 13
REMARK VINA RESULT:    -5.031      2.354      6.366
REMARK INTER + INTRA:          -7.109
REMARK INTER:                  -6.432
REMARK INTRA:                  -0.676
REMARK UNBOUND:                -0.754
REMARK SMILES CC(=O)C[C@H](c1ccccc1)c1c(O)c2ccccc2oc1=O
REMARK SMILES IDX 5 1 4 2 2 3 3 4 1 5 6 6 7 7 11 8 8 9 10 10 9 11 12 12 13 13
REMARK SMILES IDX 22 14 15 15 21 16 23 17 16 18 20 19 17 20 19 21 18 22 14 23
REMARK H PARENT 14 24
ROOT
ATOM      1  C   UNL     1       5.011  46.286  53.073  1.00  0.00     0.068 C 
ENDROOT
BRANCH   1   2
ATOM      2  C   UNL     1       4.115  47.342  52.396  1.00  0.00     0.088 C 
BRANCH   2   3
ATOM      3  C   UNL     1       4.878  48.633  52.176  1.00  0.00     0.130 C 
ATOM      4  O   UNL     1       6.107  48.668  52.253  1.00  0.00    -0.300 OA
ATOM      5  C   UNL     1       4.083  49.863  51.828  1.00  0.00     0.087 C 
ENDBRANCH   2   3
ENDBRANCH   1   2
BRANCH   1   6
ATOM      6  C   UNL     1       4.882  44.892  52.458  1.00  0.00    -0.040 A 
ATOM      7  C   UNL     1       4.106  44.639  51.317  1.00  0.00     0.004 A 
ATOM      8  C   UNL     1       5.548  43.812  53.063  1.00  0.00     0.004 A 
ATOM      9  C   UNL     1       4.009  43.348  50.791  1.00  0.00     0.000 A 
ATOM     10  C   UNL     1       5.453  42.523  52.535  1.00  0.00     0.000 A 
ATOM     11  C   UNL     1       4.684  42.292  51.398  1.00  0.00     0.000 A 
ENDBRANCH   1   6
BRANCH   1  12
ATOM     12  C   UNL     1       4.899  46.240  54.598  1.00  0.00     0.088 A 
ATOM     13  C   UNL     1       5.862  46.726  55.401  1.00  0.00     0.137 A 
ATOM     14  C   UNL     1       3.689  45.620  55.197  1.00  0.00     0.343 A 
ATOM     15  C   UNL     1       5.742  46.684  56.861  1.00  0.00     0.060 A 
ATOM     16  O   UNL     1       3.669  45.449  56.575  1.00  0.00    -0.422 OA
ATOM     17  O   UNL     1       2.736  45.247  54.520  1.00  0.00    -0.246 OA
ATOM     18  C   UNL     1       6.640  47.292  57.750  1.00  0.00     0.016 A 
ATOM     19  C   UNL     1       4.652  46.011  57.403  1.00  0.00     0.142 A 
ATOM     20  C   UNL     1       6.459  47.183  59.133  1.00  0.00     0.001 A 
ATOM     21  C   UNL     1       4.459  45.889  58.779  1.00  0.00     0.048 A 
ATOM     22  C   UNL     1       5.374  46.475  59.648  1.00  0.00     0.004 A 
BRANCH  13  23
ATOM     23  O   UNL     1       7.027  47.248  54.871  1.00  0.00    -0.507 OA
ATOM     24  H   UNL     1       7.340  46.656  54.166  1.00  0.00     0.293 HD
ENDBRANCH  13  23
ENDBRANCH   1  12
TORSDOF 5
ENDMDL
MODEL 14
REMARK VINA RESULT:    -4.983      1.714      6.027
REMARK INTER + INTRA:          -7.048
REMARK INTER:                  -6.229
REMARK INTRA:                  -0.819
REMARK UNBOUND:                -0.754
REMARK SMILES CC(=O)C[C@H](c1ccccc1)c1c(O)c2ccccc2oc1=O
REMARK SMILES IDX 5 1 4 2 2 3 3 4 1 5 6 6 7 7 11 8 8 9 10 10 9 11 12 12 13 13
REMARK SMILES IDX 22 14 15 15 21 16 23 17 16 18 20 19 17 20 19 21 18 22 14 23
REMARK H PARENT 14 24
ROOT
ATOM      1  C   UNL     1       3.754  45.957  55.637  1.00  0.00     0.068 C 
ENDROOT
BRANCH   1   2
ATOM      2  C   UNL     1       2.270  45.783  56.014  1.00  0.00     0.088 C 
BRANCH   2   3
ATOM      3  C   UNL     1       1.730  47.041  56.665  1.00  0.00     0.130 C 
ATOM      4  O   UNL     1       1.343  47.038  57.835  1.00  0.00    -0.300 OA
ATOM      5  C   UNL     1       1.712  48.301  55.841  1.00  0.00     0.087 C 
ENDBRANCH   2   3
ENDBRANCH   1   2
BRANCH   1   6
ATOM      6  C   UNL     1       4.293  44.837  54.747  1.00  0.00    -0.040 A 
ATOM      7  C   UNL     1       5.563  44.889  54.153  1.00  0.00     0.004 A 
ATOM      8  C   UNL     1       3.486  43.714  54.494  1.00  0.00     0.004 A 
ATOM      9  C   UNL     1       6.015  43.846  53.340  1.00  0.00     0.000 A 
ATOM     10  C   UNL     1       3.940  42.671  53.684  1.00  0.00     0.000 A 
ATOM     11  C   UNL     1       5.205  42.738  53.108  1.00  0.00     0.000 A 
ENDBRANCH   1   6
BRANCH   1  12
ATOM     12  C   UNL     1       4.683  46.229  56.821  1.00  0.00     0.088 A 
ATOM     13  C   UNL     1       5.460  47.326  56.884  1.00  0.00     0.137 A 
ATOM     14  C   UNL     1       4.732  45.233  57.922  1.00  0.00     0.343 A 
ATOM     15  C   UNL     1       6.342  47.582  58.026  1.00  0.00     0.060 A 
ATOM     16  O   UNL     1       5.687  45.417  58.913  1.00  0.00    -0.422 OA
ATOM     17  O   UNL     1       3.981  44.265  57.968  1.00  0.00    -0.246 OA
ATOM     18  C   UNL     1       7.070  48.764  58.218  1.00  0.00     0.016 A 
ATOM     19  C   UNL     1       6.449  46.592  58.996  1.00  0.00     0.142 A 
ATOM     20  C   UNL     1       7.906  48.915  59.331  1.00  0.00     0.001 A 
ATOM     21  C   UNL     1       7.280  46.724  60.109  1.00  0.00     0.048 A 
ATOM     22  C   UNL     1       8.018  47.892  60.271  1.00  0.00     0.004 A 
BRANCH  13  23
ATOM     23  O   UNL     1       5.483  48.235  55.843  1.00  0.00    -0.507 OA
ATOM     24  H   UNL     1       6.282  48.078  55.311  1.00  0.00     0.293 HD
ENDBRANCH  13  23
ENDBRANCH   1  12
TORSDOF 5
ENDMDL
MODEL 15
REMARK VINA RESULT:    -4.944      2.968      5.420
REMARK INTER + INTRA:          -6.999
REMARK INTER:                  -6.321
REMARK INTRA:                  -0.679
REMARK UNBOUND:                -0.754
REMARK SMILES CC(=O)C[C@H](c1ccccc1)c1c(O)c2ccccc2oc1=O
REMARK SMILES IDX 5 1 4 2 2 3 3 4 1 5 6 6 7 7 11 8 8 9 10 10 9 11 12 12 13 13
REMARK SMILES IDX 22 14 15 15 21 16 23 17 16 18 20 19 17 20 19 21 18 22 14 23
REMARK H PARENT 14 24
ROOT
ATOM      1  C   UNL     1       5.287  45.405  55.011  1.00  0.00     0.068 C 
ENDROOT
BRANCH   1   2
ATOM      2  C   UNL     1       4.362  44.242  54.602  1.00  0.00     0.088 C 
BRANCH   2   3
ATOM      3  C   UNL     1       5.104  43.246  53.731  1.00  0.00     0.130 C 
ATOM      4  O   UNL     1       5.248  43.440  52.523  1.00  0.00    -0.300 OA
ATOM      5  C   UNL     1       5.684  42.029  54.401  1.00  0.00     0.087 C 
ENDBRANCH   2   3
ENDBRANCH   1   2
BRANCH   1   6
ATOM      6  C   UNL     1       5.192  45.767  56.494  1.00  0.00    -0.040 A 
ATOM      7  C   UNL     1       5.765  46.933  57.024  1.00  0.00     0.004 A 
ATOM      8  C   UNL     1       4.522  44.896  57.371  1.00  0.00     0.004 A 
ATOM      9  C   UNL     1       5.661  47.224  58.387  1.00  0.00     0.000 A 
ATOM     10  C   UNL     1       4.417  45.189  58.732  1.00  0.00     0.000 A 
ATOM     11  C   UNL     1       4.986  46.354  59.239  1.00  0.00     0.000 A 
ENDBRANCH   1   6
BRANCH   1  12
ATOM     12  C   UNL     1       5.179  46.645  54.122  1.00  0.00     0.088 A 
ATOM     13  C   UNL     1       4.035  47.341  53.999  1.00  0.00     0.137 A 
ATOM     14  C   UNL     1       6.382  47.073  53.362  1.00  0.00     0.343 A 
ATOM     15  C   UNL     1       3.944  48.533  53.152  1.00  0.00     0.060 A 
ATOM     16  O   UNL     1       6.229  48.106  52.447  1.00  0.00    -0.422 OA
ATOM     17  O   UNL     1       7.476  46.538  53.505  1.00  0.00    -0.246 OA
ATOM     18  C   UNL     1       2.828  49.378  53.087  1.00  0.00     0.016 A 
ATOM     19  C   UNL     1       5.048  48.858  52.371  1.00  0.00     0.142 A 
ATOM     20  C   UNL     1       2.819  50.485  52.230  1.00  0.00     0.001 A 
ATOM     21  C   UNL     1       5.055  49.955  51.510  1.00  0.00     0.048 A 
ATOM     22  C   UNL     1       3.929  50.769  51.436  1.00  0.00     0.004 A 
BRANCH  13  23
ATOM     23  O   UNL     1       2.884  46.927  54.644  1.00  0.00    -0.507 OA
ATOM     24  H   UNL     1       2.565  47.652  55.208  1.00  0.00     0.293 HD
ENDBRANCH  13  23
ENDBRANCH   1  12
TORSDOF 5
ENDMDL
MODEL 16
REMARK VINA RESULT:    -4.891      4.170      6.341
REMARK INTER + INTRA:          -6.932
REMARK INTER:                  -6.190
REMARK INTRA:                  -0.742
REMARK UNBOUND:                -0.754
REMARK SMILES CC(=O)C[C@H](c1ccccc1)c1c(O)c2ccccc2oc1=O
REMARK SMILES IDX 5 1 4 2 2 3 3 4 1 5 6 6 7 7 11 8 8 9 10 10 9 11 12 12 13 13
REMARK SMILES IDX 22 14 15 15 21 16 23 17 16 18 20 19 17 20 19 21 18 22 14 23
REMARK H PARENT 14 24
ROOT
ATOM      1  C   UNL     1       4.538  42.619  53.586  1.00  0.00     0.068 C 
ENDROOT
BRANCH   1   2
ATOM      2  C   UNL     1       5.944  43.250  53.587  1.00  0.00     0.088 C 
BRANCH   2   3
ATOM      3  C   UNL     1       5.868  44.734  53.285  1.00  0.00     0.130 C 
ATOM      4  O   UNL     1       6.779  45.498  53.607  1.00  0.00    -0.300 OA
ATOM      5  C   UNL     1       4.653  45.235  52.550  1.00  0.00     0.087 C 
ENDBRANCH   2   3
ENDBRANCH   1   2
BRANCH   1   6
ATOM      6  C   UNL     1       3.978  42.375  54.988  1.00  0.00    -0.040 A 
ATOM      7  C   UNL     1       4.720  42.628  56.151  1.00  0.00     0.004 A 
ATOM      8  C   UNL     1       2.677  41.860  55.126  1.00  0.00     0.004 A 
ATOM      9  C   UNL     1       4.172  42.385  57.414  1.00  0.00     0.000 A 
ATOM     10  C   UNL     1       2.130  41.620  56.388  1.00  0.00     0.000 A 
ATOM     11  C   UNL     1       2.878  41.884  57.532  1.00  0.00     0.000 A 
ENDBRANCH   1   6
BRANCH   1  12
ATOM     12  C   UNL     1       4.398  41.379  52.702  1.00  0.00     0.088 A 
ATOM     13  C   UNL     1       5.099  40.254  52.930  1.00  0.00     0.137 A 
ATOM     14  C   UNL     1       3.466  41.440  51.546  1.00  0.00     0.343 A 
ATOM     15  C   UNL     1       4.952  39.068  52.082  1.00  0.00     0.060 A 
ATOM     16  O   UNL     1       3.462  40.365  50.667  1.00  0.00    -0.422 OA
ATOM     17  O   UNL     1       2.731  42.400  51.342  1.00  0.00    -0.246 OA
ATOM     18  C   UNL     1       5.546  37.826  52.344  1.00  0.00     0.016 A 
ATOM     19  C   UNL     1       4.154  39.178  50.948  1.00  0.00     0.142 A 
ATOM     20  C   UNL     1       5.369  36.751  51.465  1.00  0.00     0.001 A 
ATOM     21  C   UNL     1       3.970  38.118  50.061  1.00  0.00     0.048 A 
ATOM     22  C   UNL     1       4.588  36.899  50.320  1.00  0.00     0.004 A 
BRANCH  13  23
ATOM     23  O   UNL     1       6.021  40.193  53.958  1.00  0.00    -0.507 OA
ATOM     24  H   UNL     1       5.601  39.771  54.728  1.00  0.00     0.293 HD
ENDBRANCH  13  23
ENDBRANCH   1  12
TORSDOF 5
ENDMDL
MODEL 17
REMARK VINA RESULT:    -4.891      2.441      3.671
REMARK INTER + INTRA:          -6.932
REMARK INTER:                  -6.527
REMARK INTRA:                  -0.405
REMARK UNBOUND:                -0.754
REMARK SMILES CC(=O)C[C@H](c1ccccc1)c1c(O)c2ccccc2oc1=O
REMARK SMILES IDX 5 1 4 2 2 3 3 4 1 5 6 6 7 7 11 8 8 9 10 10 9 11 12 12 13 13
REMARK SMILES IDX 22 14 15 15 21 16 23 17 16 18 20 19 17 20 19 21 18 22 14 23
REMARK H PARENT 14 24
ROOT
ATOM      1  C   UNL     1       4.826  46.769  58.237  1.00  0.00     0.068 C 
ENDROOT
BRANCH   1   2
ATOM      2  C   UNL     1       6.297  46.368  58.461  1.00  0.00     0.088 C 
BRANCH   2   3
ATOM      3  C   UNL     1       7.066  47.494  59.124  1.00  0.00     0.130 C 
ATOM      4  O   UNL     1       7.046  48.636  58.665  1.00  0.00    -0.300 OA
ATOM      5  C   UNL     1       7.830  47.171  60.381  1.00  0.00     0.087 C 
ENDBRANCH   2   3
ENDBRANCH   1   2
BRANCH   1   6
ATOM      6  C   UNL     1       3.835  45.641  58.526  1.00  0.00    -0.040 A 
ATOM      7  C   UNL     1       2.560  45.875  59.063  1.00  0.00     0.004 A 
ATOM      8  C   UNL     1       4.213  44.312  58.264  1.00  0.00     0.004 A 
ATOM      9  C   UNL     1       1.687  44.815  59.319  1.00  0.00     0.000 A 
ATOM     10  C   UNL     1       3.338  43.254  58.518  1.00  0.00     0.000 A 
ATOM     11  C   UNL     1       2.075  43.506  59.044  1.00  0.00     0.000 A 
ENDBRANCH   1   6
BRANCH   1  12
ATOM     12  C   UNL     1       4.545  47.430  56.887  1.00  0.00     0.088 A 
ATOM     13  C   UNL     1       4.990  46.910  55.729  1.00  0.00     0.137 A 
ATOM     14  C   UNL     1       3.770  48.697  56.870  1.00  0.00     0.343 A 
ATOM     15  C   UNL     1       4.709  47.545  54.439  1.00  0.00     0.060 A 
ATOM     16  O   UNL     1       3.652  49.363  55.657  1.00  0.00    -0.422 OA
ATOM     17  O   UNL     1       3.258  49.169  57.879  1.00  0.00    -0.246 OA
ATOM     18  C   UNL     1       5.023  46.986  53.192  1.00  0.00     0.016 A 
ATOM     19  C   UNL     1       4.071  48.781  54.451  1.00  0.00     0.142 A 
ATOM     20  C   UNL     1       4.737  47.676  52.008  1.00  0.00     0.001 A 
ATOM     21  C   UNL     1       3.782  49.483  53.281  1.00  0.00     0.048 A 
ATOM     22  C   UNL     1       4.125  48.928  52.053  1.00  0.00     0.004 A 
BRANCH  13  23
ATOM     23  O   UNL     1       5.769  45.768  55.721  1.00  0.00    -0.507 OA
ATOM     24  H   UNL     1       6.253  45.716  56.563  1.00  0.00     0.293 HD
ENDBRANCH  13  23
ENDBRANCH   1  12
TORSDOF 5
ENDMDL
MODEL 18
REMARK VINA RESULT:    -4.878      2.331      6.416
REMARK INTER + INTRA:          -6.916
REMARK INTER:                  -6.483
REMARK INTRA:                  -0.433
REMARK UNBOUND:                -0.754
REMARK SMILES CC(=O)C[C@H](c1ccccc1)c1c(O)c2ccccc2oc1=O
REMARK SMILES IDX 5 1 4 2 2 3 3 4 1 5 6 6 7 7 11 8 8 9 10 10 9 11 12 12 13 13
REMARK SMILES IDX 22 14 15 15 21 16 23 17 16 18 20 19 17 20 19 21 18 22 14 23
REMARK H PARENT 14 24
ROOT
ATOM      1  C   UNL     1       5.071  45.966  52.973  1.00  0.00     0.068 C 
ENDROOT
BRANCH   1   2
ATOM      2  C   UNL     1       3.755  46.638  52.537  1.00  0.00     0.088 C 
BRANCH   2   3
ATOM      3  C   UNL     1       4.017  47.706  51.493  1.00  0.00     0.130 C 
ATOM      4  O   UNL     1       4.941  48.510  51.622  1.00  0.00    -0.300 OA
ATOM      5  C   UNL     1       3.127  47.728  50.278  1.00  0.00     0.087 C 
ENDBRANCH   2   3
ENDBRANCH   1   2
BRANCH   1   6
ATOM      6  C   UNL     1       5.099  44.458  52.719  1.00  0.00    -0.040 A 
ATOM      7  C   UNL     1       5.826  43.570  53.525  1.00  0.00     0.004 A 
ATOM      8  C   UNL     1       4.385  43.933  51.626  1.00  0.00     0.004 A 
ATOM      9  C   UNL     1       5.830  42.199  53.255  1.00  0.00     0.000 A 
ATOM     10  C   UNL     1       4.388  42.563  51.359  1.00  0.00     0.000 A 
ATOM     11  C   UNL     1       5.110  41.696  52.174  1.00  0.00     0.000 A 
ENDBRANCH   1   6
BRANCH   1  12
ATOM     12  C   UNL     1       5.517  46.303  54.396  1.00  0.00     0.088 A 
ATOM     13  C   UNL     1       4.788  45.963  55.474  1.00  0.00     0.137 A 
ATOM     14  C   UNL     1       6.790  47.047  54.578  1.00  0.00     0.343 A 
ATOM     15  C   UNL     1       5.227  46.284  56.835  1.00  0.00     0.060 A 
ATOM     16  O   UNL     1       7.106  47.477  55.860  1.00  0.00    -0.422 OA
ATOM     17  O   UNL     1       7.544  47.300  53.644  1.00  0.00    -0.246 OA
ATOM     18  C   UNL     1       4.588  45.842  58.001  1.00  0.00     0.016 A 
ATOM     19  C   UNL     1       6.367  47.067  56.979  1.00  0.00     0.142 A 
ATOM     20  C   UNL     1       5.065  46.216  59.262  1.00  0.00     0.001 A 
ATOM     21  C   UNL     1       6.854  47.452  58.228  1.00  0.00     0.048 A 
ATOM     22  C   UNL     1       6.193  47.027  59.377  1.00  0.00     0.004 A 
BRANCH  13  23
ATOM     23  O   UNL     1       3.568  45.330  55.330  1.00  0.00    -0.507 OA
ATOM     24  H   UNL     1       3.496  44.997  54.419  1.00  0.00     0.293 HD
ENDBRANCH  13  23
ENDBRANCH   1  12
TORSDOF 5
ENDMDL
MODEL 19
REMARK VINA RESULT:    -4.849      2.738      5.945
REMARK INTER + INTRA:          -6.879
REMARK INTER:                  -6.102
REMARK INTRA:                  -0.777
REMARK UNBOUND:                -0.754
REMARK SMILES CC(=O)C[C@H](c1ccccc1)c1c(O)c2ccccc2oc1=O
REMARK SMILES IDX 5 1 4 2 2 3 3 4 1 5 6 6 7 7 11 8 8 9 10 10 9 11 12 12 13 13
REMARK SMILES IDX 22 14 15 15 21 16 23 17 16 18 20 19 17 20 19 21 18 22 14 23
REMARK H PARENT 14 24
ROOT
ATOM      1  C   UNL     1       4.166  46.915  53.776  1.00  0.00     0.068 C 
ENDROOT
BRANCH   1   2
ATOM      2  C   UNL     1       4.961  45.953  52.873  1.00  0.00     0.088 C 
BRANCH   2   3
ATOM      3  C   UNL     1       4.679  44.510  53.244  1.00  0.00     0.130 C 
ATOM      4  O   UNL     1       3.534  44.057  53.215  1.00  0.00    -0.300 OA
ATOM      5  C   UNL     1       5.852  43.644  53.618  1.00  0.00     0.087 C 
ENDBRANCH   2   3
ENDBRANCH   1   2
BRANCH   1   6
ATOM      6  C   UNL     1       4.236  48.375  53.325  1.00  0.00    -0.040 A 
ATOM      7  C   UNL     1       4.935  48.777  52.177  1.00  0.00     0.004 A 
ATOM      8  C   UNL     1       3.593  49.362  54.093  1.00  0.00     0.004 A 
ATOM      9  C   UNL     1       4.979  50.123  51.802  1.00  0.00     0.000 A 
ATOM     10  C   UNL     1       3.636  50.706  53.716  1.00  0.00     0.000 A 
ATOM     11  C   UNL     1       4.329  51.085  52.570  1.00  0.00     0.000 A 
ENDBRANCH   1   6
BRANCH   1  12
ATOM     12  C   UNL     1       4.461  46.776  55.270  1.00  0.00     0.088 A 
ATOM     13  C   UNL     1       5.673  47.044  55.788  1.00  0.00     0.137 A 
ATOM     14  C   UNL     1       3.369  46.310  56.164  1.00  0.00     0.343 A 
ATOM     15  C   UNL     1       5.945  46.915  57.222  1.00  0.00     0.060 A 
ATOM     16  O   UNL     1       3.692  46.044  57.488  1.00  0.00    -0.422 OA
ATOM     17  O   UNL     1       2.221  46.141  55.768  1.00  0.00    -0.246 OA
ATOM     18  C   UNL     1       7.138  47.308  57.844  1.00  0.00     0.016 A 
ATOM     19  C   UNL     1       4.942  46.382  58.026  1.00  0.00     0.142 A 
ATOM     20  C   UNL     1       7.320  47.127  59.219  1.00  0.00     0.001 A 
ATOM     21  C   UNL     1       5.108  46.192  59.398  1.00  0.00     0.048 A 
ATOM     22  C   UNL     1       6.309  46.561  59.995  1.00  0.00     0.004 A 
BRANCH  13  23
ATOM     23  O   UNL     1       6.724  47.415  54.970  1.00  0.00    -0.507 OA
ATOM     24  H   UNL     1       7.338  46.665  54.894  1.00  0.00     0.293 HD
ENDBRANCH  13  23
ENDBRANCH   1  12
TORSDOF 5
ENDMDL
MODEL 20
REMARK VINA RESULT:    -4.816      2.365      4.153
REMARK INTER + INTRA:          -6.837
REMARK INTER:                  -6.214
REMARK INTRA:                  -0.622
REMARK UNBOUND:                -0.754
REMARK SMILES CC(=O)C[C@H](c1ccccc1)c1c(O)c2ccccc2oc1=O
REMARK SMILES IDX 5 1 4 2 2 3 3 4 1 5 6 6 7 7 11 8 8 9 10 10 9 11 12 12 13 13
REMARK SMILES IDX 22 14 15 15 21 16 23 17 16 18 20 19 17 20 19 21 18 22 14 23
REMARK H PARENT 14 24
ROOT
ATOM      1  C   UNL     1       4.373  46.699  55.756  1.00  0.00     0.068 C 
ENDROOT
BRANCH   1   2
ATOM      2  C   UNL     1       4.892  47.541  54.574  1.00  0.00     0.088 C 
BRANCH   2   3
ATOM      3  C   UNL     1       4.079  48.812  54.422  1.00  0.00     0.130 C 
ATOM      4  O   UNL     1       4.479  49.744  53.723  1.00  0.00    -0.300 OA
ATOM      5  C   UNL     1       2.753  48.881  55.131  1.00  0.00     0.087 C 
ENDBRANCH   2   3
ENDBRANCH   1   2
BRANCH   1   6
ATOM      6  C   UNL     1       5.248  46.800  57.007  1.00  0.00    -0.040 A 
ATOM      7  C   UNL     1       6.387  47.617  57.067  1.00  0.00     0.004 A 
ATOM      8  C   UNL     1       4.916  46.035  58.139  1.00  0.00     0.004 A 
ATOM      9  C   UNL     1       7.163  47.676  58.228  1.00  0.00     0.000 A 
ATOM     10  C   UNL     1       5.691  46.097  59.299  1.00  0.00     0.000 A 
ATOM     11  C   UNL     1       6.813  46.919  59.343  1.00  0.00     0.000 A 
ENDBRANCH   1   6
BRANCH   1  12
ATOM     12  C   UNL     1       4.055  45.244  55.410  1.00  0.00     0.088 A 
ATOM     13  C   UNL     1       4.950  44.439  54.808  1.00  0.00     0.137 A 
ATOM     14  C   UNL     1       2.705  44.720  55.740  1.00  0.00     0.343 A 
ATOM     15  C   UNL     1       4.639  43.044  54.487  1.00  0.00     0.060 A 
ATOM     16  O   UNL     1       2.380  43.449  55.286  1.00  0.00    -0.422 OA
ATOM     17  O   UNL     1       1.882  45.373  56.373  1.00  0.00    -0.246 OA
ATOM     18  C   UNL     1       5.565  42.118  53.988  1.00  0.00     0.016 A 
ATOM     19  C   UNL     1       3.339  42.602  54.711  1.00  0.00     0.142 A 
ATOM     20  C   UNL     1       5.175  40.808  53.689  1.00  0.00     0.001 A 
ATOM     21  C   UNL     1       2.932  41.301  54.414  1.00  0.00     0.048 A 
ATOM     22  C   UNL     1       3.857  40.401  53.894  1.00  0.00     0.004 A 
BRANCH  13  23
ATOM     23  O   UNL     1       6.190  44.920  54.431  1.00  0.00    -0.507 OA
ATOM     24  H   UNL     1       6.410  44.559  53.555  1.00  0.00     0.293 HD
ENDBRANCH  13  23
ENDBRANCH   1  12
TORSDOF 5
ENDMDL
