MODEL 1
REMARK VINA RESULT:   -10.863      0.000      0.000
REMARK INTER + INTRA:         -13.755
REMARK INTER:                 -13.403
REMARK INTRA:                  -0.352
REMARK UNBOUND:                -0.352
REMARK SMILES O=c1oc2ccccc2c(O)c1C(c1ccccc1)c1c(O)c2ccccc2oc1=O
REMARK SMILES IDX 13 1 12 2 1 3 2 4 3 5 4 6 10 7 5 8 9 9 6 10 8 11 7 12 11 13
REMARK SMILES IDX 14 15 15 16 19 17 16 18 18 19 17 20 20 21 21 22 30 23 23 24
REMARK SMILES IDX 29 25 31 26 24 27 28 28 25 29 27 30 26 31 22 32
REMARK H PARENT 11 14 22 33
ROOT
ATOM      1  C   UNL     1     -18.215  86.632  33.404  1.00  0.00     0.102 C 
ENDROOT
BRANCH   1   2
ATOM      2  C   UNL     1     -17.788  88.094  33.225  1.00  0.00     0.092 A 
ATOM      3  O   UNL     1     -18.646  88.735  35.353  1.00  0.00    -0.246 OA
ATOM      4  C   UNL     1     -18.109  89.063  34.301  1.00  0.00     0.344 A 
ATOM      5  O   UNL     1     -17.813  90.402  34.072  1.00  0.00    -0.422 OA
ATOM      6  C   UNL     1     -17.113  90.825  32.933  1.00  0.00     0.142 A 
ATOM      7  C   UNL     1     -17.176  88.527  32.105  1.00  0.00     0.138 A 
ATOM      8  C   UNL     1     -16.779  92.178  32.869  1.00  0.00     0.048 A 
ATOM      9  C   UNL     1     -16.752  89.920  31.942  1.00  0.00     0.060 A 
ATOM     10  C   UNL     1     -16.041  92.644  31.785  1.00  0.00     0.004 A 
ATOM     11  C   UNL     1     -15.986  90.399  30.871  1.00  0.00     0.016 A 
ATOM     12  C   UNL     1     -15.638  91.754  30.790  1.00  0.00     0.001 A 
BRANCH   7  13
ATOM     13  O   UNL     1     -16.933  87.661  31.055  1.00  0.00    -0.507 OA
ATOM     14  H   UNL     1     -17.038  88.147  30.220  1.00  0.00     0.293 HD
ENDBRANCH   7  13
ENDBRANCH   1   2
BRANCH   1  15
ATOM     15  C   UNL     1     -19.434  86.231  32.561  1.00  0.00    -0.035 A 
ATOM     16  C   UNL     1     -20.109  85.031  32.851  1.00  0.00     0.005 A 
ATOM     17  C   UNL     1     -19.907  87.018  31.498  1.00  0.00     0.005 A 
ATOM     18  C   UNL     1     -21.230  84.641  32.114  1.00  0.00     0.000 A 
ATOM     19  C   UNL     1     -21.028  86.625  30.761  1.00  0.00     0.000 A 
ATOM     20  C   UNL     1     -21.690  85.440  31.070  1.00  0.00     0.000 A 
ENDBRANCH   1  15
BRANCH   1  21
ATOM     21  C   UNL     1     -17.065  85.625  33.499  1.00  0.00     0.092 A 
ATOM     22  C   UNL     1     -16.420  85.421  34.665  1.00  0.00     0.138 A 
ATOM     23  C   UNL     1     -16.668  84.840  32.296  1.00  0.00     0.344 A 
ATOM     24  C   UNL     1     -15.301  84.483  34.783  1.00  0.00     0.060 A 
ATOM     25  O   UNL     1     -15.706  83.849  32.478  1.00  0.00    -0.422 OA
ATOM     26  O   UNL     1     -17.164  84.988  31.186  1.00  0.00    -0.246 OA
ATOM     27  C   UNL     1     -14.501  84.335  35.926  1.00  0.00     0.016 A 
ATOM     28  C   UNL     1     -14.998  83.699  33.678  1.00  0.00     0.142 A 
ATOM     29  C   UNL     1     -13.461  83.396  35.953  1.00  0.00     0.001 A 
ATOM     30  C   UNL     1     -13.969  82.758  33.688  1.00  0.00     0.048 A 
ATOM     31  C   UNL     1     -13.201  82.602  34.837  1.00  0.00     0.004 A 
BRANCH  22  32
ATOM     32  O   UNL     1     -16.805  86.098  35.809  1.00  0.00    -0.507 OA
ATOM     33  H   UNL     1     -17.420  86.808  35.556  1.00  0.00     0.293 HD
ENDBRANCH  22  32
ENDBRANCH   1  21
TORSDOF 5
ENDMDL
MODEL 2
REMARK VINA RESULT:   -10.497      1.000      1.975
REMARK INTER + INTRA:         -13.304
REMARK INTER:                 -13.609
REMARK INTRA:                   0.305
REMARK UNBOUND:                -0.352
REMARK SMILES O=c1oc2ccccc2c(O)c1C(c1ccccc1)c1c(O)c2ccccc2oc1=O
REMARK SMILES IDX 13 1 12 2 1 3 2 4 3 5 4 6 10 7 5 8 9 9 6 10 8 11 7 12 11 13
REMARK SMILES IDX 14 15 15 16 19 17 16 18 18 19 17 20 20 21 21 22 30 23 23 24
REMARK SMILES IDX 29 25 31 26 24 27 28 28 25 29 27 30 26 31 22 32
REMARK H PARENT 11 14 22 33
ROOT
ATOM      1  C   UNL     1     -18.341  85.977  33.426  1.00  0.00     0.102 C 
ENDROOT
BRANCH   1   2
ATOM      2  C   UNL     1     -18.081  87.439  33.041  1.00  0.00     0.092 A 
ATOM      3  O   UNL     1     -17.843  86.919  30.729  1.00  0.00    -0.246 OA
ATOM      4  C   UNL     1     -17.809  87.761  31.619  1.00  0.00     0.344 A 
ATOM      5  O   UNL     1     -17.467  89.072  31.309  1.00  0.00    -0.422 OA
ATOM      6  C   UNL     1     -17.505  90.097  32.265  1.00  0.00     0.142 A 
ATOM      7  C   UNL     1     -18.047  88.424  33.962  1.00  0.00     0.138 A 
ATOM      8  C   UNL     1     -17.247  91.390  31.809  1.00  0.00     0.048 A 
ATOM      9  C   UNL     1     -17.816  89.822  33.591  1.00  0.00     0.060 A 
ATOM     10  C   UNL     1     -17.320  92.453  32.703  1.00  0.00     0.004 A 
ATOM     11  C   UNL     1     -17.913  90.907  34.475  1.00  0.00     0.016 A 
ATOM     12  C   UNL     1     -17.661  92.212  34.035  1.00  0.00     0.001 A 
BRANCH   7  13
ATOM     13  O   UNL     1     -18.222  88.142  35.304  1.00  0.00    -0.507 OA
ATOM     14  H   UNL     1     -17.377  87.831  35.669  1.00  0.00     0.293 HD
ENDBRANCH   7  13
ENDBRANCH   1   2
BRANCH   1  15
ATOM     15  C   UNL     1     -19.590  85.373  32.770  1.00  0.00    -0.035 A 
ATOM     16  C   UNL     1     -19.877  84.008  32.959  1.00  0.00     0.005 A 
ATOM     17  C   UNL     1     -20.467  86.130  31.976  1.00  0.00     0.005 A 
ATOM     18  C   UNL     1     -21.012  83.426  32.389  1.00  0.00     0.000 A 
ATOM     19  C   UNL     1     -21.600  85.546  31.405  1.00  0.00     0.000 A 
ATOM     20  C   UNL     1     -21.874  84.197  31.613  1.00  0.00     0.000 A 
ENDBRANCH   1  15
BRANCH   1  21
ATOM     21  C   UNL     1     -17.093  85.094  33.506  1.00  0.00     0.092 A 
ATOM     22  C   UNL     1     -16.406  84.972  34.660  1.00  0.00     0.138 A 
ATOM     23  C   UNL     1     -16.641  84.340  32.303  1.00  0.00     0.344 A 
ATOM     24  C   UNL     1     -15.195  84.154  34.764  1.00  0.00     0.060 A 
ATOM     25  O   UNL     1     -15.580  83.454  32.474  1.00  0.00    -0.422 OA
ATOM     26  O   UNL     1     -17.173  84.422  31.203  1.00  0.00    -0.246 OA
ATOM     27  C   UNL     1     -14.360  84.103  35.890  1.00  0.00     0.016 A 
ATOM     28  C   UNL     1     -14.836  83.392  33.660  1.00  0.00     0.142 A 
ATOM     29  C   UNL     1     -13.230  83.275  35.905  1.00  0.00     0.001 A 
ATOM     30  C   UNL     1     -13.715  82.561  33.658  1.00  0.00     0.048 A 
ATOM     31  C   UNL     1     -12.913  82.499  34.791  1.00  0.00     0.004 A 
BRANCH  22  32
ATOM     32  O   UNL     1     -16.835  85.620  35.806  1.00  0.00    -0.507 OA
ATOM     33  H   UNL     1     -16.152  85.520  36.491  1.00  0.00     0.293 HD
ENDBRANCH  22  32
ENDBRANCH   1  21
TORSDOF 5
ENDMDL
MODEL 3
REMARK VINA RESULT:   -10.485      2.054      6.572
REMARK INTER + INTRA:         -13.288
REMARK INTER:                 -12.976
REMARK INTRA:                  -0.312
REMARK UNBOUND:                -0.352
REMARK SMILES O=c1oc2ccccc2c(O)c1C(c1ccccc1)c1c(O)c2ccccc2oc1=O
REMARK SMILES IDX 13 1 12 2 1 3 2 4 3 5 4 6 10 7 5 8 9 9 6 10 8 11 7 12 11 13
REMARK SMILES IDX 14 15 15 16 19 17 16 18 18 19 17 20 20 21 21 22 30 23 23 24
REMARK SMILES IDX 29 25 31 26 24 27 28 28 25 29 27 30 26 31 22 32
REMARK H PARENT 11 14 22 33
ROOT
ATOM      1  C   UNL     1     -17.692  84.528  32.331  1.00  0.00     0.102 C 
ENDROOT
BRANCH   1   2
ATOM      2  C   UNL     1     -16.798  84.318  33.559  1.00  0.00     0.092 A 
ATOM      3  O   UNL     1     -14.820  84.137  32.243  1.00  0.00    -0.246 OA
ATOM      4  C   UNL     1     -15.345  84.098  33.350  1.00  0.00     0.344 A 
ATOM      5  O   UNL     1     -14.571  83.801  34.465  1.00  0.00    -0.422 OA
ATOM      6  C   UNL     1     -15.095  83.836  35.765  1.00  0.00     0.142 A 
ATOM      7  C   UNL     1     -17.299  84.282  34.810  1.00  0.00     0.138 A 
ATOM      8  C   UNL     1     -14.194  83.627  36.810  1.00  0.00     0.048 A 
ATOM      9  C   UNL     1     -16.442  84.100  35.983  1.00  0.00     0.060 A 
ATOM     10  C   UNL     1     -14.648  83.700  38.123  1.00  0.00     0.004 A 
ATOM     11  C   UNL     1     -16.878  84.198  37.312  1.00  0.00     0.016 A 
ATOM     12  C   UNL     1     -15.989  83.994  38.374  1.00  0.00     0.001 A 
BRANCH   7  13
ATOM     13  O   UNL     1     -18.658  84.408  35.029  1.00  0.00    -0.507 OA
ATOM     14  H   UNL     1     -19.105  83.624  34.670  1.00  0.00     0.293 HD
ENDBRANCH   7  13
ENDBRANCH   1   2
BRANCH   1  15
ATOM     15  C   UNL     1     -18.979  83.691  32.348  1.00  0.00    -0.035 A 
ATOM     16  C   UNL     1     -18.919  82.340  32.738  1.00  0.00     0.005 A 
ATOM     17  C   UNL     1     -20.228  84.221  31.984  1.00  0.00     0.005 A 
ATOM     18  C   UNL     1     -20.072  81.552  32.778  1.00  0.00     0.000 A 
ATOM     19  C   UNL     1     -21.379  83.430  32.024  1.00  0.00     0.000 A 
ATOM     20  C   UNL     1     -21.302  82.099  32.423  1.00  0.00     0.000 A 
ENDBRANCH   1  15
BRANCH   1  21
ATOM     21  C   UNL     1     -17.802  85.976  31.845  1.00  0.00     0.092 A 
ATOM     22  C   UNL     1     -17.252  86.355  30.674  1.00  0.00     0.138 A 
ATOM     23  C   UNL     1     -18.547  86.976  32.662  1.00  0.00     0.344 A 
ATOM     24  C   UNL     1     -17.318  87.737  30.193  1.00  0.00     0.060 A 
ATOM     25  O   UNL     1     -18.723  88.240  32.105  1.00  0.00    -0.422 OA
ATOM     26  O   UNL     1     -19.041  86.736  33.756  1.00  0.00    -0.246 OA
ATOM     27  C   UNL     1     -16.645  88.222  29.062  1.00  0.00     0.016 A 
ATOM     28  C   UNL     1     -18.085  88.636  30.921  1.00  0.00     0.142 A 
ATOM     29  C   UNL     1     -16.784  89.559  28.666  1.00  0.00     0.001 A 
ATOM     30  C   UNL     1     -18.237  89.970  30.541  1.00  0.00     0.048 A 
ATOM     31  C   UNL     1     -17.586  90.430  29.401  1.00  0.00     0.004 A 
BRANCH  22  32
ATOM     32  O   UNL     1     -16.600  85.434  29.872  1.00  0.00    -0.507 OA
ATOM     33  H   UNL     1     -16.749  84.545  30.238  1.00  0.00     0.293 HD
ENDBRANCH  22  32
ENDBRANCH   1  21
TORSDOF 5
ENDMDL
MODEL 4
REMARK VINA RESULT:   -10.397      1.454      1.855
REMARK INTER + INTRA:         -13.181
REMARK INTER:                 -13.031
REMARK INTRA:                  -0.149
REMARK UNBOUND:                -0.352
REMARK SMILES O=c1oc2ccccc2c(O)c1C(c1ccccc1)c1c(O)c2ccccc2oc1=O
REMARK SMILES IDX 13 1 12 2 1 3 2 4 3 5 4 6 10 7 5 8 9 9 6 10 8 11 7 12 11 13
REMARK SMILES IDX 14 15 15 16 19 17 16 18 18 19 17 20 20 21 21 22 30 23 23 24
REMARK SMILES IDX 29 25 31 26 24 27 28 28 25 29 27 30 26 31 22 32
REMARK H PARENT 11 14 22 33
ROOT
ATOM      1  C   UNL     1     -18.370  85.265  33.344  1.00  0.00     0.102 C 
ENDROOT
BRANCH   1   2
ATOM      2  C   UNL     1     -18.211  86.661  32.729  1.00  0.00     0.092 A 
ATOM      3  O   UNL     1     -18.292  87.743  34.851  1.00  0.00    -0.246 OA
ATOM      4  C   UNL     1     -18.222  87.840  33.631  1.00  0.00     0.344 A 
ATOM      5  O   UNL     1     -18.188  89.099  33.045  1.00  0.00    -0.422 OA
ATOM      6  C   UNL     1     -18.012  89.274  31.665  1.00  0.00     0.142 A 
ATOM      7  C   UNL     1     -18.109  86.847  31.398  1.00  0.00     0.138 A 
ATOM      8  C   UNL     1     -17.883  90.587  31.210  1.00  0.00     0.048 A 
ATOM      9  C   UNL     1     -17.940  88.179  30.812  1.00  0.00     0.060 A 
ATOM     10  C   UNL     1     -17.656  90.818  29.857  1.00  0.00     0.004 A 
ATOM     11  C   UNL     1     -17.683  88.427  29.456  1.00  0.00     0.016 A 
ATOM     12  C   UNL     1     -17.548  89.737  28.982  1.00  0.00     0.001 A 
BRANCH   7  13
ATOM     13  O   UNL     1     -18.172  85.774  30.529  1.00  0.00    -0.507 OA
ATOM     14  H   UNL     1     -18.719  86.023  29.766  1.00  0.00     0.293 HD
ENDBRANCH   7  13
ENDBRANCH   1   2
BRANCH   1  15
ATOM     15  C   UNL     1     -19.606  84.503  32.847  1.00  0.00    -0.035 A 
ATOM     16  C   UNL     1     -19.728  83.129  33.128  1.00  0.00     0.005 A 
ATOM     17  C   UNL     1     -20.630  85.122  32.111  1.00  0.00     0.005 A 
ATOM     18  C   UNL     1     -20.845  82.405  32.703  1.00  0.00     0.000 A 
ATOM     19  C   UNL     1     -21.745  84.396  31.685  1.00  0.00     0.000 A 
ATOM     20  C   UNL     1     -21.854  83.040  31.983  1.00  0.00     0.000 A 
ENDBRANCH   1  15
BRANCH   1  21
ATOM     21  C   UNL     1     -17.071  84.471  33.501  1.00  0.00     0.092 A 
ATOM     22  C   UNL     1     -16.368  84.516  34.651  1.00  0.00     0.138 A 
ATOM     23  C   UNL     1     -16.585  83.617  32.379  1.00  0.00     0.344 A 
ATOM     24  C   UNL     1     -15.109  83.787  34.824  1.00  0.00     0.060 A 
ATOM     25  O   UNL     1     -15.471  82.820  32.630  1.00  0.00    -0.422 OA
ATOM     26  O   UNL     1     -17.131  83.548  31.286  1.00  0.00    -0.246 OA
ATOM     27  C   UNL     1     -14.263  83.908  35.937  1.00  0.00     0.016 A 
ATOM     28  C   UNL     1     -14.715  82.931  33.805  1.00  0.00     0.142 A 
ATOM     29  C   UNL     1     -13.085  83.154  36.024  1.00  0.00     0.001 A 
ATOM     30  C   UNL     1     -13.546  82.172  33.875  1.00  0.00     0.048 A 
ATOM     31  C   UNL     1     -12.732  82.281  34.996  1.00  0.00     0.004 A 
BRANCH  22  32
ATOM     32  O   UNL     1     -16.825  85.259  35.726  1.00  0.00    -0.507 OA
ATOM     33  H   UNL     1     -17.654  84.863  36.045  1.00  0.00     0.293 HD
ENDBRANCH  22  32
ENDBRANCH   1  21
TORSDOF 5
ENDMDL
MODEL 5
REMARK VINA RESULT:   -10.374      0.966      6.490
REMARK INTER + INTRA:         -13.152
REMARK INTER:                 -12.846
REMARK INTRA:                  -0.307
REMARK UNBOUND:                -0.352
REMARK SMILES O=c1oc2ccccc2c(O)c1C(c1ccccc1)c1c(O)c2ccccc2oc1=O
REMARK SMILES IDX 13 1 12 2 1 3 2 4 3 5 4 6 10 7 5 8 9 9 6 10 8 11 7 12 11 13
REMARK SMILES IDX 14 15 15 16 19 17 16 18 18 19 17 20 20 21 21 22 30 23 23 24
REMARK SMILES IDX 29 25 31 26 24 27 28 28 25 29 27 30 26 31 22 32
REMARK H PARENT 11 14 22 33
ROOT
ATOM      1  C   UNL     1     -17.621  86.124  31.827  1.00  0.00     0.102 C 
ENDROOT
BRANCH   1   2
ATOM      2  C   UNL     1     -16.502  85.273  32.443  1.00  0.00     0.092 A 
ATOM      3  O   UNL     1     -15.690  84.576  30.314  1.00  0.00    -0.246 OA
ATOM      4  C   UNL     1     -15.611  84.510  31.536  1.00  0.00     0.344 A 
ATOM      5  O   UNL     1     -14.676  83.660  32.116  1.00  0.00    -0.422 OA
ATOM      6  C   UNL     1     -14.473  83.613  33.502  1.00  0.00     0.142 A 
ATOM      7  C   UNL     1     -16.340  85.165  33.777  1.00  0.00     0.138 A 
ATOM      8  C   UNL     1     -13.432  82.803  33.957  1.00  0.00     0.048 A 
ATOM      9  C   UNL     1     -15.261  84.367  34.364  1.00  0.00     0.060 A 
ATOM     10  C   UNL     1     -13.153  82.756  35.319  1.00  0.00     0.004 A 
ATOM     11  C   UNL     1     -14.950  84.331  35.730  1.00  0.00     0.016 A 
ATOM     12  C   UNL     1     -13.907  83.526  36.204  1.00  0.00     0.001 A 
BRANCH   7  13
ATOM     13  O   UNL     1     -17.204  85.805  34.646  1.00  0.00    -0.507 OA
ATOM     14  H   UNL     1     -16.889  85.667  35.555  1.00  0.00     0.293 HD
ENDBRANCH   7  13
ENDBRANCH   1   2
BRANCH   1  15
ATOM     15  C   UNL     1     -19.011  85.478  31.909  1.00  0.00    -0.035 A 
ATOM     16  C   UNL     1     -20.069  86.021  31.156  1.00  0.00     0.005 A 
ATOM     17  C   UNL     1     -19.277  84.360  32.716  1.00  0.00     0.005 A 
ATOM     18  C   UNL     1     -21.345  85.452  31.195  1.00  0.00     0.000 A 
ATOM     19  C   UNL     1     -20.554  83.794  32.755  1.00  0.00     0.000 A 
ATOM     20  C   UNL     1     -21.585  84.337  31.994  1.00  0.00     0.000 A 
ENDBRANCH   1  15
BRANCH   1  21
ATOM     21  C   UNL     1     -17.526  87.626  32.108  1.00  0.00     0.092 A 
ATOM     22  C   UNL     1     -16.739  88.421  31.356  1.00  0.00     0.138 A 
ATOM     23  C   UNL     1     -18.331  88.224  33.211  1.00  0.00     0.344 A 
ATOM     24  C   UNL     1     -16.608  89.857  31.614  1.00  0.00     0.060 A 
ATOM     25  O   UNL     1     -18.302  89.612  33.332  1.00  0.00    -0.422 OA
ATOM     26  O   UNL     1     -19.038  87.577  33.973  1.00  0.00    -0.246 OA
ATOM     27  C   UNL     1     -15.700  90.706  30.963  1.00  0.00     0.016 A 
ATOM     28  C   UNL     1     -17.426  90.414  32.588  1.00  0.00     0.142 A 
ATOM     29  C   UNL     1     -15.660  92.074  31.264  1.00  0.00     0.001 A 
ATOM     30  C   UNL     1     -17.401  91.774  32.898  1.00  0.00     0.048 A 
ATOM     31  C   UNL     1     -16.516  92.608  32.225  1.00  0.00     0.004 A 
BRANCH  22  32
ATOM     32  O   UNL     1     -16.023  87.899  30.293  1.00  0.00    -0.507 OA
ATOM     33  H   UNL     1     -16.627  87.783  29.540  1.00  0.00     0.293 HD
ENDBRANCH  22  32
ENDBRANCH   1  21
TORSDOF 5
ENDMDL
MODEL 6
REMARK VINA RESULT:   -10.365      3.297      6.202
REMARK INTER + INTRA:         -13.141
REMARK INTER:                 -13.614
REMARK INTRA:                   0.473
REMARK UNBOUND:                -0.352
REMARK SMILES O=c1oc2ccccc2c(O)c1C(c1ccccc1)c1c(O)c2ccccc2oc1=O
REMARK SMILES IDX 13 1 12 2 1 3 2 4 3 5 4 6 10 7 5 8 9 9 6 10 8 11 7 12 11 13
REMARK SMILES IDX 14 15 15 16 19 17 16 18 18 19 17 20 20 21 21 22 30 23 23 24
REMARK SMILES IDX 29 25 31 26 24 27 28 28 25 29 27 30 26 31 22 32
REMARK H PARENT 11 14 22 33
ROOT
ATOM      1  C   UNL     1     -16.091  83.431  32.407  1.00  0.00     0.102 C 
ENDROOT
BRANCH   1   2
ATOM      2  C   UNL     1     -17.581  83.092  32.271  1.00  0.00     0.092 A 
ATOM      3  O   UNL     1     -17.212  80.765  32.629  1.00  0.00    -0.246 OA
ATOM      4  C   UNL     1     -17.998  81.672  32.377  1.00  0.00     0.344 A 
ATOM      5  O   UNL     1     -19.334  81.373  32.141  1.00  0.00    -0.422 OA
ATOM      6  C   UNL     1     -20.296  82.374  31.943  1.00  0.00     0.142 A 
ATOM      7  C   UNL     1     -18.507  84.036  32.013  1.00  0.00     0.138 A 
ATOM      8  C   UNL     1     -21.622  81.955  31.826  1.00  0.00     0.048 A 
ATOM      9  C   UNL     1     -19.931  83.714  31.901  1.00  0.00     0.060 A 
ATOM     10  C   UNL     1     -22.625  82.908  31.679  1.00  0.00     0.004 A 
ATOM     11  C   UNL     1     -20.956  84.664  31.779  1.00  0.00     0.016 A 
ATOM     12  C   UNL     1     -22.292  84.262  31.663  1.00  0.00     0.001 A 
BRANCH   7  13
ATOM     13  O   UNL     1     -18.137  85.356  31.834  1.00  0.00    -0.507 OA
ATOM     14  H   UNL     1     -18.755  85.770  31.209  1.00  0.00     0.293 HD
ENDBRANCH   7  13
ENDBRANCH   1   2
BRANCH   1  15
ATOM     15  C   UNL     1     -15.601  84.493  31.414  1.00  0.00    -0.035 A 
ATOM     16  C   UNL     1     -15.814  84.301  30.036  1.00  0.00     0.005 A 
ATOM     17  C   UNL     1     -14.938  85.662  31.825  1.00  0.00     0.005 A 
ATOM     18  C   UNL     1     -15.394  85.252  29.104  1.00  0.00     0.000 A 
ATOM     19  C   UNL     1     -14.517  86.611  30.891  1.00  0.00     0.000 A 
ATOM     20  C   UNL     1     -14.747  86.409  29.533  1.00  0.00     0.000 A 
ENDBRANCH   1  15
BRANCH   1  21
ATOM     21  C   UNL     1     -15.573  83.521  33.845  1.00  0.00     0.092 A 
ATOM     22  C   UNL     1     -16.264  84.194  34.788  1.00  0.00     0.138 A 
ATOM     23  C   UNL     1     -14.301  82.839  34.218  1.00  0.00     0.344 A 
ATOM     24  C   UNL     1     -15.784  84.319  36.166  1.00  0.00     0.060 A 
ATOM     25  O   UNL     1     -13.952  82.847  35.566  1.00  0.00    -0.422 OA
ATOM     26  O   UNL     1     -13.585  82.243  33.424  1.00  0.00    -0.246 OA
ATOM     27  C   UNL     1     -16.380  85.123  37.149  1.00  0.00     0.016 A 
ATOM     28  C   UNL     1     -14.644  83.609  36.518  1.00  0.00     0.142 A 
ATOM     29  C   UNL     1     -15.859  85.165  38.449  1.00  0.00     0.001 A 
ATOM     30  C   UNL     1     -14.113  83.637  37.808  1.00  0.00     0.048 A 
ATOM     31  C   UNL     1     -14.731  84.416  38.780  1.00  0.00     0.004 A 
BRANCH  22  32
ATOM     32  O   UNL     1     -17.474  84.792  34.480  1.00  0.00    -0.507 OA
ATOM     33  H   UNL     1     -17.301  85.699  34.175  1.00  0.00     0.293 HD
ENDBRANCH  22  32
ENDBRANCH   1  21
TORSDOF 5
ENDMDL
MODEL 7
REMARK VINA RESULT:   -10.255      3.203      6.381
REMARK INTER + INTRA:         -13.005
REMARK INTER:                 -12.793
REMARK INTRA:                  -0.212
REMARK UNBOUND:                -0.352
REMARK SMILES O=c1oc2ccccc2c(O)c1C(c1ccccc1)c1c(O)c2ccccc2oc1=O
REMARK SMILES IDX 13 1 12 2 1 3 2 4 3 5 4 6 10 7 5 8 9 9 6 10 8 11 7 12 11 13
REMARK SMILES IDX 14 15 15 16 19 17 16 18 18 19 17 20 20 21 21 22 30 23 23 24
REMARK SMILES IDX 29 25 31 26 24 27 28 28 25 29 27 30 26 31 22 32
REMARK H PARENT 11 14 22 33
ROOT
ATOM      1  C   UNL     1     -16.200  83.749  32.980  1.00  0.00     0.102 C 
ENDROOT
BRANCH   1   2
ATOM      2  C   UNL     1     -17.580  83.130  32.726  1.00  0.00     0.092 A 
ATOM      3  O   UNL     1     -16.845  80.941  33.314  1.00  0.00    -0.246 OA
ATOM      4  C   UNL     1     -17.746  81.667  32.910  1.00  0.00     0.344 A 
ATOM      5  O   UNL     1     -18.973  81.110  32.569  1.00  0.00    -0.422 OA
ATOM      6  C   UNL     1     -20.070  81.899  32.193  1.00  0.00     0.142 A 
ATOM      7  C   UNL     1     -18.625  83.867  32.299  1.00  0.00     0.138 A 
ATOM      8  C   UNL     1     -21.278  81.233  31.982  1.00  0.00     0.048 A 
ATOM      9  C   UNL     1     -19.947  83.278  32.074  1.00  0.00     0.060 A 
ATOM     10  C   UNL     1     -22.411  81.971  31.656  1.00  0.00     0.004 A 
ATOM     11  C   UNL     1     -21.104  84.010  31.773  1.00  0.00     0.016 A 
ATOM     12  C   UNL     1     -22.326  83.360  31.559  1.00  0.00     0.001 A 
BRANCH   7  13
ATOM     13  O   UNL     1     -18.479  85.218  32.047  1.00  0.00    -0.507 OA
ATOM     14  H   UNL     1     -17.548  85.396  31.837  1.00  0.00     0.293 HD
ENDBRANCH   7  13
ENDBRANCH   1   2
BRANCH   1  15
ATOM     15  C   UNL     1     -15.685  84.619  31.825  1.00  0.00    -0.035 A 
ATOM     16  C   UNL     1     -16.007  84.268  30.500  1.00  0.00     0.005 A 
ATOM     17  C   UNL     1     -14.896  85.761  32.034  1.00  0.00     0.005 A 
ATOM     18  C   UNL     1     -15.569  85.043  29.424  1.00  0.00     0.000 A 
ATOM     19  C   UNL     1     -14.456  86.534  30.956  1.00  0.00     0.000 A 
ATOM     20  C   UNL     1     -14.795  86.178  29.654  1.00  0.00     0.000 A 
ENDBRANCH   1  15
BRANCH   1  21
ATOM     21  C   UNL     1     -15.969  84.263  34.404  1.00  0.00     0.092 A 
ATOM     22  C   UNL     1     -15.173  83.592  35.260  1.00  0.00     0.138 A 
ATOM     23  C   UNL     1     -16.610  85.535  34.844  1.00  0.00     0.344 A 
ATOM     24  C   UNL     1     -14.951  84.045  36.636  1.00  0.00     0.060 A 
ATOM     25  O   UNL     1     -16.257  86.016  36.102  1.00  0.00    -0.422 OA
ATOM     26  O   UNL     1     -17.381  86.188  34.154  1.00  0.00    -0.246 OA
ATOM     27  C   UNL     1     -14.255  83.317  37.613  1.00  0.00     0.016 A 
ATOM     28  C   UNL     1     -15.485  85.272  37.004  1.00  0.00     0.142 A 
ATOM     29  C   UNL     1     -14.076  83.841  38.900  1.00  0.00     0.001 A 
ATOM     30  C   UNL     1     -15.315  85.809  38.280  1.00  0.00     0.048 A 
ATOM     31  C   UNL     1     -14.599  85.089  39.230  1.00  0.00     0.004 A 
BRANCH  22  32
ATOM     32  O   UNL     1     -14.523  82.437  34.859  1.00  0.00    -0.507 OA
ATOM     33  H   UNL     1     -13.755  82.687  34.318  1.00  0.00     0.293 HD
ENDBRANCH  22  32
ENDBRANCH   1  21
TORSDOF 5
ENDMDL
MODEL 8
REMARK VINA RESULT:   -10.216      1.064      2.803
REMARK INTER + INTRA:         -12.957
REMARK INTER:                 -13.221
REMARK INTRA:                   0.264
REMARK UNBOUND:                -0.352
REMARK SMILES O=c1oc2ccccc2c(O)c1C(c1ccccc1)c1c(O)c2ccccc2oc1=O
REMARK SMILES IDX 13 1 12 2 1 3 2 4 3 5 4 6 10 7 5 8 9 9 6 10 8 11 7 12 11 13
REMARK SMILES IDX 14 15 15 16 19 17 16 18 18 19 17 20 20 21 21 22 30 23 23 24
REMARK SMILES IDX 29 25 31 26 24 27 28 28 25 29 27 30 26 31 22 32
REMARK H PARENT 11 14 22 33
ROOT
ATOM      1  C   UNL     1     -18.164  86.052  33.925  1.00  0.00     0.102 C 
ENDROOT
BRANCH   1   2
ATOM      2  C   UNL     1     -17.881  87.416  33.281  1.00  0.00     0.092 A 
ATOM      3  O   UNL     1     -17.415  86.453  31.152  1.00  0.00    -0.246 OA
ATOM      4  C   UNL     1     -17.476  87.456  31.854  1.00  0.00     0.344 A 
ATOM      5  O   UNL     1     -17.117  88.688  31.321  1.00  0.00    -0.422 OA
ATOM      6  C   UNL     1     -17.256  89.881  32.044  1.00  0.00     0.142 A 
ATOM      7  C   UNL     1     -17.945  88.564  33.984  1.00  0.00     0.138 A 
ATOM      8  C   UNL     1     -16.968  91.065  31.364  1.00  0.00     0.048 A 
ATOM      9  C   UNL     1     -17.692  89.867  33.364  1.00  0.00     0.060 A 
ATOM     10  C   UNL     1     -17.137  92.281  32.017  1.00  0.00     0.004 A 
ATOM     11  C   UNL     1     -17.884  91.102  33.999  1.00  0.00     0.016 A 
ATOM     12  C   UNL     1     -17.602  92.300  33.332  1.00  0.00     0.001 A 
BRANCH   7  13
ATOM     13  O   UNL     1     -18.246  88.549  35.333  1.00  0.00    -0.507 OA
ATOM     14  H   UNL     1     -18.835  87.798  35.512  1.00  0.00     0.293 HD
ENDBRANCH   7  13
ENDBRANCH   1   2
BRANCH   1  15
ATOM     15  C   UNL     1     -19.289  85.262  33.242  1.00  0.00    -0.035 A 
ATOM     16  C   UNL     1     -20.190  85.936  32.397  1.00  0.00     0.005 A 
ATOM     17  C   UNL     1     -19.462  83.881  33.430  1.00  0.00     0.005 A 
ATOM     18  C   UNL     1     -21.218  85.247  31.748  1.00  0.00     0.000 A 
ATOM     19  C   UNL     1     -20.492  83.195  32.782  1.00  0.00     0.000 A 
ATOM     20  C   UNL     1     -21.367  83.876  31.940  1.00  0.00     0.000 A 
ENDBRANCH   1  15
BRANCH   1  21
ATOM     21  C   UNL     1     -16.922  85.270  34.364  1.00  0.00     0.092 A 
ATOM     22  C   UNL     1     -16.320  84.403  33.525  1.00  0.00     0.138 A 
ATOM     23  C   UNL     1     -16.355  85.486  35.725  1.00  0.00     0.344 A 
ATOM     24  C   UNL     1     -15.146  83.622  33.923  1.00  0.00     0.060 A 
ATOM     25  O   UNL     1     -15.153  84.846  36.016  1.00  0.00    -0.422 OA
ATOM     26  O   UNL     1     -16.856  86.218  36.568  1.00  0.00    -0.246 OA
ATOM     27  C   UNL     1     -14.567  82.603  33.152  1.00  0.00     0.016 A 
ATOM     28  C   UNL     1     -14.580  83.895  35.160  1.00  0.00     0.142 A 
ATOM     29  C   UNL     1     -13.430  81.922  33.607  1.00  0.00     0.001 A 
ATOM     30  C   UNL     1     -13.447  83.228  35.629  1.00  0.00     0.048 A 
ATOM     31  C   UNL     1     -12.867  82.240  34.841  1.00  0.00     0.004 A 
BRANCH  22  32
ATOM     32  O   UNL     1     -16.797  84.223  32.238  1.00  0.00    -0.507 OA
ATOM     33  H   UNL     1     -16.102  83.796  31.708  1.00  0.00     0.293 HD
ENDBRANCH  22  32
ENDBRANCH   1  21
TORSDOF 5
ENDMDL
MODEL 9
REMARK VINA RESULT:   -10.122      1.225      6.000
REMARK INTER + INTRA:         -12.841
REMARK INTER:                 -13.000
REMARK INTRA:                   0.159
REMARK UNBOUND:                -0.352
REMARK SMILES O=c1oc2ccccc2c(O)c1C(c1ccccc1)c1c(O)c2ccccc2oc1=O
REMARK SMILES IDX 13 1 12 2 1 3 2 4 3 5 4 6 10 7 5 8 9 9 6 10 8 11 7 12 11 13
REMARK SMILES IDX 14 15 15 16 19 17 16 18 18 19 17 20 20 21 21 22 30 23 23 24
REMARK SMILES IDX 29 25 31 26 24 27 28 28 25 29 27 30 26 31 22 32
REMARK H PARENT 11 14 22 33
ROOT
ATOM      1  C   UNL     1     -17.494  86.077  31.841  1.00  0.00     0.102 C 
ENDROOT
BRANCH   1   2
ATOM      2  C   UNL     1     -16.717  85.416  32.986  1.00  0.00     0.092 A 
ATOM      3  O   UNL     1     -18.557  85.573  34.492  1.00  0.00    -0.246 OA
ATOM      4  C   UNL     1     -17.389  85.256  34.299  1.00  0.00     0.344 A 
ATOM      5  O   UNL     1     -16.633  84.757  35.353  1.00  0.00    -0.422 OA
ATOM      6  C   UNL     1     -15.324  84.289  35.174  1.00  0.00     0.142 A 
ATOM      7  C   UNL     1     -15.435  85.024  32.846  1.00  0.00     0.138 A 
ATOM      8  C   UNL     1     -14.706  83.710  36.284  1.00  0.00     0.048 A 
ATOM      9  C   UNL     1     -14.699  84.377  33.935  1.00  0.00     0.060 A 
ATOM     10  C   UNL     1     -13.426  83.183  36.150  1.00  0.00     0.004 A 
ATOM     11  C   UNL     1     -13.420  83.816  33.810  1.00  0.00     0.016 A 
ATOM     12  C   UNL     1     -12.786  83.229  34.912  1.00  0.00     0.001 A 
BRANCH   7  13
ATOM     13  O   UNL     1     -14.760  85.230  31.657  1.00  0.00    -0.507 OA
ATOM     14  H   UNL     1     -13.808  85.277  31.844  1.00  0.00     0.293 HD
ENDBRANCH   7  13
ENDBRANCH   1   2
BRANCH   1  15
ATOM     15  C   UNL     1     -18.965  85.649  31.757  1.00  0.00    -0.035 A 
ATOM     16  C   UNL     1     -19.282  84.279  31.683  1.00  0.00     0.005 A 
ATOM     17  C   UNL     1     -20.022  86.574  31.748  1.00  0.00     0.005 A 
ATOM     18  C   UNL     1     -20.610  83.851  31.619  1.00  0.00     0.000 A 
ATOM     19  C   UNL     1     -21.349  86.144  31.682  1.00  0.00     0.000 A 
ATOM     20  C   UNL     1     -21.643  84.784  31.621  1.00  0.00     0.000 A 
ENDBRANCH   1  15
BRANCH   1  21
ATOM     21  C   UNL     1     -17.180  87.558  31.611  1.00  0.00     0.092 A 
ATOM     22  C   UNL     1     -17.545  88.490  32.514  1.00  0.00     0.138 A 
ATOM     23  C   UNL     1     -16.439  87.976  30.387  1.00  0.00     0.344 A 
ATOM     24  C   UNL     1     -17.281  89.917  32.313  1.00  0.00     0.060 A 
ATOM     25  O   UNL     1     -16.069  89.316  30.300  1.00  0.00    -0.422 OA
ATOM     26  O   UNL     1     -16.105  87.210  29.493  1.00  0.00    -0.246 OA
ATOM     27  C   UNL     1     -17.762  90.943  33.140  1.00  0.00     0.016 A 
ATOM     28  C   UNL     1     -16.518  90.281  31.212  1.00  0.00     0.142 A 
ATOM     29  C   UNL     1     -17.441  92.281  32.879  1.00  0.00     0.001 A 
ATOM     30  C   UNL     1     -16.186  91.609  30.938  1.00  0.00     0.048 A 
ATOM     31  C   UNL     1     -16.647  92.612  31.783  1.00  0.00     0.004 A 
BRANCH  22  32
ATOM     32  O   UNL     1     -18.188  88.122  33.684  1.00  0.00    -0.507 OA
ATOM     33  H   UNL     1     -18.180  88.880  34.293  1.00  0.00     0.293 HD
ENDBRANCH  22  32
ENDBRANCH   1  21
TORSDOF 5
ENDMDL
MODEL 10
REMARK VINA RESULT:    -9.926      2.012      6.267
REMARK INTER + INTRA:         -12.599
REMARK INTER:                 -12.886
REMARK INTRA:                   0.287
REMARK UNBOUND:                -0.352
REMARK SMILES O=c1oc2ccccc2c(O)c1C(c1ccccc1)c1c(O)c2ccccc2oc1=O
REMARK SMILES IDX 13 1 12 2 1 3 2 4 3 5 4 6 10 7 5 8 9 9 6 10 8 11 7 12 11 13
REMARK SMILES IDX 14 15 15 16 19 17 16 18 18 19 17 20 20 21 21 22 30 23 23 24
REMARK SMILES IDX 29 25 31 26 24 27 28 28 25 29 27 30 26 31 22 32
REMARK H PARENT 11 14 22 33
ROOT
ATOM      1  C   UNL     1     -17.084  84.125  32.354  1.00  0.00     0.102 C 
ENDROOT
BRANCH   1   2
ATOM      2  C   UNL     1     -16.333  84.029  33.688  1.00  0.00     0.092 A 
ATOM      3  O   UNL     1     -14.314  83.317  32.642  1.00  0.00    -0.246 OA
ATOM      4  C   UNL     1     -14.923  83.566  33.676  1.00  0.00     0.344 A 
ATOM      5  O   UNL     1     -14.296  83.380  34.902  1.00  0.00    -0.422 OA
ATOM      6  C   UNL     1     -14.907  83.738  36.112  1.00  0.00     0.142 A 
ATOM      7  C   UNL     1     -16.930  84.305  34.865  1.00  0.00     0.138 A 
ATOM      8  C   UNL     1     -14.135  83.606  37.268  1.00  0.00     0.048 A 
ATOM      9  C   UNL     1     -16.207  84.229  36.136  1.00  0.00     0.060 A 
ATOM     10  C   UNL     1     -14.673  83.994  38.491  1.00  0.00     0.004 A 
ATOM     11  C   UNL     1     -16.724  84.642  37.372  1.00  0.00     0.016 A 
ATOM     12  C   UNL     1     -15.964  84.519  38.542  1.00  0.00     0.001 A 
BRANCH   7  13
ATOM     13  O   UNL     1     -18.264  84.664  34.911  1.00  0.00    -0.507 OA
ATOM     14  H   UNL     1     -18.459  85.236  34.151  1.00  0.00     0.293 HD
ENDBRANCH   7  13
ENDBRANCH   1   2
BRANCH   1  15
ATOM     15  C   UNL     1     -18.515  83.571  32.403  1.00  0.00    -0.035 A 
ATOM     16  C   UNL     1     -18.734  82.268  32.888  1.00  0.00     0.005 A 
ATOM     17  C   UNL     1     -19.627  84.315  31.977  1.00  0.00     0.005 A 
ATOM     18  C   UNL     1     -20.023  81.736  32.960  1.00  0.00     0.000 A 
ATOM     19  C   UNL     1     -20.915  83.780  32.048  1.00  0.00     0.000 A 
ATOM     20  C   UNL     1     -21.114  82.493  32.541  1.00  0.00     0.000 A 
ENDBRANCH   1  15
BRANCH   1  21
ATOM     21  C   UNL     1     -16.860  85.424  31.573  1.00  0.00     0.092 A 
ATOM     22  C   UNL     1     -17.296  86.604  32.057  1.00  0.00     0.138 A 
ATOM     23  C   UNL     1     -16.130  85.389  30.274  1.00  0.00     0.344 A 
ATOM     24  C   UNL     1     -17.118  87.860  31.324  1.00  0.00     0.060 A 
ATOM     25  O   UNL     1     -15.844  86.616  29.679  1.00  0.00    -0.422 OA
ATOM     26  O   UNL     1     -15.737  84.363  29.736  1.00  0.00    -0.246 OA
ATOM     27  C   UNL     1     -17.674  89.091  31.703  1.00  0.00     0.016 A 
ATOM     28  C   UNL     1     -16.364  87.825  30.159  1.00  0.00     0.142 A 
ATOM     29  C   UNL     1     -17.434  90.247  30.947  1.00  0.00     0.001 A 
ATOM     30  C   UNL     1     -16.113  88.966  29.395  1.00  0.00     0.048 A 
ATOM     31  C   UNL     1     -16.647  90.184  29.799  1.00  0.00     0.004 A 
BRANCH  22  32
ATOM     32  O   UNL     1     -17.930  86.670  33.286  1.00  0.00    -0.507 OA
ATOM     33  H   UNL     1     -18.244  87.580  33.423  1.00  0.00     0.293 HD
ENDBRANCH  22  32
ENDBRANCH   1  21
TORSDOF 5
ENDMDL
MODEL 11
REMARK VINA RESULT:    -9.901      1.507      6.243
REMARK INTER + INTRA:         -12.568
REMARK INTER:                 -12.929
REMARK INTRA:                   0.360
REMARK UNBOUND:                -0.352
REMARK SMILES O=c1oc2ccccc2c(O)c1C(c1ccccc1)c1c(O)c2ccccc2oc1=O
REMARK SMILES IDX 13 1 12 2 1 3 2 4 3 5 4 6 10 7 5 8 9 9 6 10 8 11 7 12 11 13
REMARK SMILES IDX 14 15 15 16 19 17 16 18 18 19 17 20 20 21 21 22 30 23 23 24
REMARK SMILES IDX 29 25 31 26 24 27 28 28 25 29 27 30 26 31 22 32
REMARK H PARENT 11 14 22 33
ROOT
ATOM      1  C   UNL     1     -17.613  86.202  31.681  1.00  0.00     0.102 C 
ENDROOT
BRANCH   1   2
ATOM      2  C   UNL     1     -16.442  85.561  32.436  1.00  0.00     0.092 A 
ATOM      3  O   UNL     1     -14.930  85.888  30.624  1.00  0.00    -0.246 OA
ATOM      4  C   UNL     1     -15.134  85.441  31.748  1.00  0.00     0.344 A 
ATOM      5  O   UNL     1     -14.119  84.758  32.406  1.00  0.00    -0.422 OA
ATOM      6  C   UNL     1     -14.259  84.309  33.727  1.00  0.00     0.142 A 
ATOM      7  C   UNL     1     -16.583  85.063  33.681  1.00  0.00     0.138 A 
ATOM      8  C   UNL     1     -13.133  83.735  34.318  1.00  0.00     0.048 A 
ATOM      9  C   UNL     1     -15.461  84.466  34.409  1.00  0.00     0.060 A 
ATOM     10  C   UNL     1     -13.200  83.317  35.643  1.00  0.00     0.004 A 
ATOM     11  C   UNL     1     -15.504  84.065  35.751  1.00  0.00     0.016 A 
ATOM     12  C   UNL     1     -14.383  83.489  36.362  1.00  0.00     0.001 A 
BRANCH   7  13
ATOM     13  O   UNL     1     -17.810  85.092  34.318  1.00  0.00    -0.507 OA
ATOM     14  H   UNL     1     -17.699  84.757  35.223  1.00  0.00     0.293 HD
ENDBRANCH   7  13
ENDBRANCH   1   2
BRANCH   1  15
ATOM     15  C   UNL     1     -18.934  85.432  31.809  1.00  0.00    -0.035 A 
ATOM     16  C   UNL     1     -18.979  84.073  31.444  1.00  0.00     0.005 A 
ATOM     17  C   UNL     1     -20.115  86.032  32.276  1.00  0.00     0.005 A 
ATOM     18  C   UNL     1     -20.160  83.337  31.560  1.00  0.00     0.000 A 
ATOM     19  C   UNL     1     -21.296  85.294  32.389  1.00  0.00     0.000 A 
ATOM     20  C   UNL     1     -21.318  83.948  32.035  1.00  0.00     0.000 A 
ENDBRANCH   1  15
BRANCH   1  21
ATOM     21  C   UNL     1     -17.680  87.730  31.762  1.00  0.00     0.092 A 
ATOM     22  C   UNL     1     -17.678  88.360  32.954  1.00  0.00     0.138 A 
ATOM     23  C   UNL     1     -17.723  88.536  30.509  1.00  0.00     0.344 A 
ATOM     24  C   UNL     1     -17.765  89.818  33.066  1.00  0.00     0.060 A 
ATOM     25  O   UNL     1     -17.651  89.920  30.646  1.00  0.00    -0.422 OA
ATOM     26  O   UNL     1     -17.773  88.054  29.385  1.00  0.00    -0.246 OA
ATOM     27  C   UNL     1     -17.913  90.518  34.273  1.00  0.00     0.016 A 
ATOM     28  C   UNL     1     -17.719  90.558  31.893  1.00  0.00     0.142 A 
ATOM     29  C   UNL     1     -17.969  91.918  34.283  1.00  0.00     0.001 A 
ATOM     30  C   UNL     1     -17.771  91.952  31.884  1.00  0.00     0.048 A 
ATOM     31  C   UNL     1     -17.890  92.634  33.090  1.00  0.00     0.004 A 
BRANCH  22  32
ATOM     32  O   UNL     1     -17.585  87.637  34.131  1.00  0.00    -0.507 OA
ATOM     33  H   UNL     1     -16.711  87.801  34.526  1.00  0.00     0.293 HD
ENDBRANCH  22  32
ENDBRANCH   1  21
TORSDOF 5
ENDMDL
MODEL 12
REMARK VINA RESULT:    -9.866      2.013      6.418
REMARK INTER + INTRA:         -12.525
REMARK INTER:                 -12.806
REMARK INTRA:                   0.281
REMARK UNBOUND:                -0.352
REMARK SMILES O=c1oc2ccccc2c(O)c1C(c1ccccc1)c1c(O)c2ccccc2oc1=O
REMARK SMILES IDX 13 1 12 2 1 3 2 4 3 5 4 6 10 7 5 8 9 9 6 10 8 11 7 12 11 13
REMARK SMILES IDX 14 15 15 16 19 17 16 18 18 19 17 20 20 21 21 22 30 23 23 24
REMARK SMILES IDX 29 25 31 26 24 27 28 28 25 29 27 30 26 31 22 32
REMARK H PARENT 11 14 22 33
ROOT
ATOM      1  C   UNL     1     -17.988  84.490  32.111  1.00  0.00     0.102 C 
ENDROOT
BRANCH   1   2
ATOM      2  C   UNL     1     -17.021  84.205  33.267  1.00  0.00     0.092 A 
ATOM      3  O   UNL     1     -18.741  84.354  34.909  1.00  0.00    -0.246 OA
ATOM      4  C   UNL     1     -17.552  84.200  34.652  1.00  0.00     0.344 A 
ATOM      5  O   UNL     1     -16.642  84.051  35.691  1.00  0.00    -0.422 OA
ATOM      6  C   UNL     1     -15.287  83.776  35.460  1.00  0.00     0.142 A 
ATOM      7  C   UNL     1     -15.703  84.007  33.063  1.00  0.00     0.138 A 
ATOM      8  C   UNL     1     -14.493  83.537  36.583  1.00  0.00     0.048 A 
ATOM      9  C   UNL     1     -14.783  83.717  34.165  1.00  0.00     0.060 A 
ATOM     10  C   UNL     1     -13.153  83.210  36.410  1.00  0.00     0.004 A 
ATOM     11  C   UNL     1     -13.437  83.359  34.007  1.00  0.00     0.016 A 
ATOM     12  C   UNL     1     -12.626  83.113  35.122  1.00  0.00     0.001 A 
BRANCH   7  13
ATOM     13  O   UNL     1     -15.167  84.081  31.791  1.00  0.00    -0.507 OA
ATOM     14  H   UNL     1     -15.761  84.609  31.233  1.00  0.00     0.293 HD
ENDBRANCH   7  13
ENDBRANCH   1   2
BRANCH   1  15
ATOM     15  C   UNL     1     -19.283  83.668  32.166  1.00  0.00    -0.035 A 
ATOM     16  C   UNL     1     -20.503  84.280  31.821  1.00  0.00     0.005 A 
ATOM     17  C   UNL     1     -19.305  82.318  32.552  1.00  0.00     0.005 A 
ATOM     18  C   UNL     1     -21.700  83.560  31.846  1.00  0.00     0.000 A 
ATOM     19  C   UNL     1     -20.504  81.601  32.578  1.00  0.00     0.000 A 
ATOM     20  C   UNL     1     -21.699  82.220  32.222  1.00  0.00     0.000 A 
ENDBRANCH   1  15
BRANCH   1  21
ATOM     21  C   UNL     1     -18.106  85.963  31.711  1.00  0.00     0.092 A 
ATOM     22  C   UNL     1     -17.536  86.419  30.578  1.00  0.00     0.138 A 
ATOM     23  C   UNL     1     -18.883  86.903  32.569  1.00  0.00     0.344 A 
ATOM     24  C   UNL     1     -17.610  87.827  30.179  1.00  0.00     0.060 A 
ATOM     25  O   UNL     1     -19.064  88.196  32.085  1.00  0.00    -0.422 OA
ATOM     26  O   UNL     1     -19.398  86.591  33.635  1.00  0.00    -0.246 OA
ATOM     27  C   UNL     1     -16.919  88.388  29.095  1.00  0.00     0.016 A 
ATOM     28  C   UNL     1     -18.406  88.671  30.942  1.00  0.00     0.142 A 
ATOM     29  C   UNL     1     -17.067  89.744  28.778  1.00  0.00     0.001 A 
ATOM     30  C   UNL     1     -18.568  90.023  30.639  1.00  0.00     0.048 A 
ATOM     31  C   UNL     1     -17.898  90.559  29.545  1.00  0.00     0.004 A 
BRANCH  22  32
ATOM     32  O   UNL     1     -16.854  85.556  29.737  1.00  0.00    -0.507 OA
ATOM     33  H   UNL     1     -16.592  86.046  28.939  1.00  0.00     0.293 HD
ENDBRANCH  22  32
ENDBRANCH   1  21
TORSDOF 5
ENDMDL
MODEL 13
REMARK VINA RESULT:    -9.782      1.612      2.813
REMARK INTER + INTRA:         -12.421
REMARK INTER:                 -12.999
REMARK INTRA:                   0.577
REMARK UNBOUND:                -0.352
REMARK SMILES O=c1oc2ccccc2c(O)c1C(c1ccccc1)c1c(O)c2ccccc2oc1=O
REMARK SMILES IDX 13 1 12 2 1 3 2 4 3 5 4 6 10 7 5 8 9 9 6 10 8 11 7 12 11 13
REMARK SMILES IDX 14 15 15 16 19 17 16 18 18 19 17 20 20 21 21 22 30 23 23 24
REMARK SMILES IDX 29 25 31 26 24 27 28 28 25 29 27 30 26 31 22 32
REMARK H PARENT 11 14 22 33
ROOT
ATOM      1  C   UNL     1     -18.133  85.369  33.783  1.00  0.00     0.102 C 
ENDROOT
BRANCH   1   2
ATOM      2  C   UNL     1     -17.956  86.620  32.914  1.00  0.00     0.092 A 
ATOM      3  O   UNL     1     -18.654  88.084  34.660  1.00  0.00    -0.246 OA
ATOM      4  C   UNL     1     -18.296  87.942  33.496  1.00  0.00     0.344 A 
ATOM      5  O   UNL     1     -18.236  89.049  32.659  1.00  0.00    -0.422 OA
ATOM      6  C   UNL     1     -17.744  88.966  31.349  1.00  0.00     0.142 A 
ATOM      7  C   UNL     1     -17.549  86.546  31.631  1.00  0.00     0.138 A 
ATOM      8  C   UNL     1     -17.628  90.165  30.643  1.00  0.00     0.048 A 
ATOM      9  C   UNL     1     -17.364  87.743  30.807  1.00  0.00     0.060 A 
ATOM     10  C   UNL     1     -17.099  90.148  29.357  1.00  0.00     0.004 A 
ATOM     11  C   UNL     1     -16.807  87.746  29.520  1.00  0.00     0.016 A 
ATOM     12  C   UNL     1     -16.681  88.940  28.799  1.00  0.00     0.001 A 
BRANCH   7  13
ATOM     13  O   UNL     1     -17.299  85.322  31.040  1.00  0.00    -0.507 OA
ATOM     14  H   UNL     1     -17.413  84.625  31.706  1.00  0.00     0.293 HD
ENDBRANCH   7  13
ENDBRANCH   1   2
BRANCH   1  15
ATOM     15  C   UNL     1     -19.229  84.415  33.287  1.00  0.00    -0.035 A 
ATOM     16  C   UNL     1     -20.247  84.910  32.450  1.00  0.00     0.005 A 
ATOM     17  C   UNL     1     -19.261  83.055  33.637  1.00  0.00     0.005 A 
ATOM     18  C   UNL     1     -21.253  84.069  31.968  1.00  0.00     0.000 A 
ATOM     19  C   UNL     1     -20.270  82.216  33.156  1.00  0.00     0.000 A 
ATOM     20  C   UNL     1     -21.262  82.721  32.320  1.00  0.00     0.000 A 
ENDBRANCH   1  15
BRANCH   1  21
ATOM     21  C   UNL     1     -16.832  84.740  34.291  1.00  0.00     0.092 A 
ATOM     22  C   UNL     1     -16.199  83.789  33.575  1.00  0.00     0.138 A 
ATOM     23  C   UNL     1     -16.243  85.200  35.581  1.00  0.00     0.344 A 
ATOM     24  C   UNL     1     -14.966  83.152  34.045  1.00  0.00     0.060 A 
ATOM     25  O   UNL     1     -14.995  84.686  35.923  1.00  0.00    -0.422 OA
ATOM     26  O   UNL     1     -16.767  86.024  36.318  1.00  0.00    -0.246 OA
ATOM     27  C   UNL     1     -14.343  82.061  33.420  1.00  0.00     0.016 A 
ATOM     28  C   UNL     1     -14.385  83.649  35.203  1.00  0.00     0.142 A 
ATOM     29  C   UNL     1     -13.153  81.528  33.932  1.00  0.00     0.001 A 
ATOM     30  C   UNL     1     -13.199  83.132  35.727  1.00  0.00     0.048 A 
ATOM     31  C   UNL     1     -12.578  82.069  35.081  1.00  0.00     0.004 A 
BRANCH  22  32
ATOM     32  O   UNL     1     -16.698  83.382  32.350  1.00  0.00    -0.507 OA
ATOM     33  H   UNL     1     -17.539  83.843  32.190  1.00  0.00     0.293 HD
ENDBRANCH  22  32
ENDBRANCH   1  21
TORSDOF 5
ENDMDL
MODEL 14
REMARK VINA RESULT:    -9.754      2.164      6.131
REMARK INTER + INTRA:         -12.387
REMARK INTER:                 -12.573
REMARK INTRA:                   0.186
REMARK UNBOUND:                -0.352
REMARK SMILES O=c1oc2ccccc2c(O)c1C(c1ccccc1)c1c(O)c2ccccc2oc1=O
REMARK SMILES IDX 13 1 12 2 1 3 2 4 3 5 4 6 10 7 5 8 9 9 6 10 8 11 7 12 11 13
REMARK SMILES IDX 14 15 15 16 19 17 16 18 18 19 17 20 20 21 21 22 30 23 23 24
REMARK SMILES IDX 29 25 31 26 24 27 28 28 25 29 27 30 26 31 22 32
REMARK H PARENT 11 14 22 33
ROOT
ATOM      1  C   UNL     1     -17.816  84.002  32.376  1.00  0.00     0.102 C 
ENDROOT
BRANCH   1   2
ATOM      2  C   UNL     1     -17.240  83.978  33.797  1.00  0.00     0.092 A 
ATOM      3  O   UNL     1     -19.341  84.496  34.792  1.00  0.00    -0.246 OA
ATOM      4  C   UNL     1     -18.142  84.284  34.934  1.00  0.00     0.344 A 
ATOM      5  O   UNL     1     -17.578  84.366  36.201  1.00  0.00    -0.422 OA
ATOM      6  C   UNL     1     -16.235  84.041  36.439  1.00  0.00     0.142 A 
ATOM      7  C   UNL     1     -15.935  83.734  34.034  1.00  0.00     0.138 A 
ATOM      8  C   UNL     1     -15.812  84.055  37.770  1.00  0.00     0.048 A 
ATOM      9  C   UNL     1     -15.389  83.694  35.392  1.00  0.00     0.060 A 
ATOM     10  C   UNL     1     -14.503  83.693  38.070  1.00  0.00     0.004 A 
ATOM     11  C   UNL     1     -14.081  83.305  35.714  1.00  0.00     0.016 A 
ATOM     12  C   UNL     1     -13.640  83.310  37.043  1.00  0.00     0.001 A 
BRANCH   7  13
ATOM     13  O   UNL     1     -15.056  83.521  32.988  1.00  0.00    -0.507 OA
ATOM     14  H   UNL     1     -14.706  82.618  33.055  1.00  0.00     0.293 HD
ENDBRANCH   7  13
ENDBRANCH   1   2
BRANCH   1  15
ATOM     15  C   UNL     1     -19.216  83.384  32.260  1.00  0.00    -0.035 A 
ATOM     16  C   UNL     1     -19.413  82.045  32.646  1.00  0.00     0.005 A 
ATOM     17  C   UNL     1     -20.322  84.104  31.778  1.00  0.00     0.005 A 
ATOM     18  C   UNL     1     -20.676  81.453  32.568  1.00  0.00     0.000 A 
ATOM     19  C   UNL     1     -21.583  83.510  31.699  1.00  0.00     0.000 A 
ATOM     20  C   UNL     1     -21.761  82.187  32.096  1.00  0.00     0.000 A 
ENDBRANCH   1  15
BRANCH   1  21
ATOM     21  C   UNL     1     -17.548  85.287  31.587  1.00  0.00     0.092 A 
ATOM     22  C   UNL     1     -18.164  86.441  31.916  1.00  0.00     0.138 A 
ATOM     23  C   UNL     1     -16.577  85.273  30.456  1.00  0.00     0.344 A 
ATOM     24  C   UNL     1     -17.948  87.681  31.166  1.00  0.00     0.060 A 
ATOM     25  O   UNL     1     -16.279  86.498  29.865  1.00  0.00    -0.422 OA
ATOM     26  O   UNL     1     -16.004  84.267  30.058  1.00  0.00    -0.246 OA
ATOM     27  C   UNL     1     -18.665  88.870  31.367  1.00  0.00     0.016 A 
ATOM     28  C   UNL     1     -16.980  87.673  30.172  1.00  0.00     0.142 A 
ATOM     29  C   UNL     1     -18.375  90.015  30.613  1.00  0.00     0.001 A 
ATOM     30  C   UNL     1     -16.676  88.803  29.414  1.00  0.00     0.048 A 
ATOM     31  C   UNL     1     -17.375  89.983  29.643  1.00  0.00     0.004 A 
BRANCH  22  32
ATOM     32  O   UNL     1     -19.031  86.492  32.994  1.00  0.00    -0.507 OA
ATOM     33  H   UNL     1     -19.943  86.450  32.660  1.00  0.00     0.293 HD
ENDBRANCH  22  32
ENDBRANCH   1  21
TORSDOF 5
ENDMDL
MODEL 15
REMARK VINA RESULT:    -9.644      2.994      5.473
REMARK INTER + INTRA:         -12.252
REMARK INTER:                 -12.469
REMARK INTRA:                   0.218
REMARK UNBOUND:                -0.352
REMARK SMILES O=c1oc2ccccc2c(O)c1C(c1ccccc1)c1c(O)c2ccccc2oc1=O
REMARK SMILES IDX 13 1 12 2 1 3 2 4 3 5 4 6 10 7 5 8 9 9 6 10 8 11 7 12 11 13
REMARK SMILES IDX 14 15 15 16 19 17 16 18 18 19 17 20 20 21 21 22 30 23 23 24
REMARK SMILES IDX 29 25 31 26 24 27 28 28 25 29 27 30 26 31 22 32
REMARK H PARENT 11 14 22 33
ROOT
ATOM      1  C   UNL     1     -15.973  83.894  34.229  1.00  0.00     0.102 C 
ENDROOT
BRANCH   1   2
ATOM      2  C   UNL     1     -16.802  84.751  33.264  1.00  0.00     0.092 A 
ATOM      3  O   UNL     1     -14.973  85.054  31.767  1.00  0.00    -0.246 OA
ATOM      4  C   UNL     1     -16.138  85.303  32.057  1.00  0.00     0.344 A 
ATOM      5  O   UNL     1     -16.874  86.166  31.255  1.00  0.00    -0.422 OA
ATOM      6  C   UNL     1     -18.235  86.413  31.481  1.00  0.00     0.142 A 
ATOM      7  C   UNL     1     -18.093  85.052  33.505  1.00  0.00     0.138 A 
ATOM      8  C   UNL     1     -18.892  87.211  30.543  1.00  0.00     0.048 A 
ATOM      9  C   UNL     1     -18.888  85.856  32.574  1.00  0.00     0.060 A 
ATOM     10  C   UNL     1     -20.255  87.448  30.689  1.00  0.00     0.004 A 
ATOM     11  C   UNL     1     -20.267  86.081  32.692  1.00  0.00     0.016 A 
ATOM     12  C   UNL     1     -20.944  86.877  31.760  1.00  0.00     0.001 A 
BRANCH   7  13
ATOM     13  O   UNL     1     -18.716  84.615  34.659  1.00  0.00    -0.507 OA
ATOM     14  H   UNL     1     -18.372  85.125  35.411  1.00  0.00     0.293 HD
ENDBRANCH   7  13
ENDBRANCH   1   2
BRANCH   1  15
ATOM     15  C   UNL     1     -16.122  84.296  35.703  1.00  0.00    -0.035 A 
ATOM     16  C   UNL     1     -16.722  83.398  36.606  1.00  0.00     0.005 A 
ATOM     17  C   UNL     1     -15.685  85.536  36.195  1.00  0.00     0.005 A 
ATOM     18  C   UNL     1     -16.862  83.724  37.957  1.00  0.00     0.000 A 
ATOM     19  C   UNL     1     -15.828  85.861  37.547  1.00  0.00     0.000 A 
ATOM     20  C   UNL     1     -16.413  84.955  38.427  1.00  0.00     0.000 A 
ENDBRANCH   1  15
BRANCH   1  21
ATOM     21  C   UNL     1     -15.944  82.397  33.909  1.00  0.00     0.092 A 
ATOM     22  C   UNL     1     -14.814  81.679  34.067  1.00  0.00     0.138 A 
ATOM     23  C   UNL     1     -17.184  81.716  33.441  1.00  0.00     0.344 A 
ATOM     24  C   UNL     1     -14.746  80.251  33.746  1.00  0.00     0.060 A 
ATOM     25  O   UNL     1     -17.127  80.332  33.293  1.00  0.00    -0.422 OA
ATOM     26  O   UNL     1     -18.243  82.292  33.227  1.00  0.00    -0.246 OA
ATOM     27  C   UNL     1     -13.570  79.486  33.750  1.00  0.00     0.016 A 
ATOM     28  C   UNL     1     -15.928  79.613  33.393  1.00  0.00     0.142 A 
ATOM     29  C   UNL     1     -13.606  78.119  33.448  1.00  0.00     0.001 A 
ATOM     30  C   UNL     1     -15.983  78.252  33.091  1.00  0.00     0.048 A 
ATOM     31  C   UNL     1     -14.813  77.501  33.126  1.00  0.00     0.004 A 
BRANCH  22  32
ATOM     32  O   UNL     1     -13.663  82.276  34.550  1.00  0.00    -0.507 OA
ATOM     33  H   UNL     1     -13.273  82.815  33.841  1.00  0.00     0.293 HD
ENDBRANCH  22  32
ENDBRANCH   1  21
TORSDOF 5
ENDMDL
MODEL 16
REMARK VINA RESULT:    -9.638      2.642      7.160
REMARK INTER + INTRA:         -12.244
REMARK INTER:                 -12.698
REMARK INTRA:                   0.455
REMARK UNBOUND:                -0.352
REMARK SMILES O=c1oc2ccccc2c(O)c1C(c1ccccc1)c1c(O)c2ccccc2oc1=O
REMARK SMILES IDX 13 1 12 2 1 3 2 4 3 5 4 6 10 7 5 8 9 9 6 10 8 11 7 12 11 13
REMARK SMILES IDX 14 15 15 16 19 17 16 18 18 19 17 20 20 21 21 22 30 23 23 24
REMARK SMILES IDX 29 25 31 26 24 27 28 28 25 29 27 30 26 31 22 32
REMARK H PARENT 11 14 22 33
ROOT
ATOM      1  C   UNL     1     -17.255  86.221  32.118  1.00  0.00     0.102 C 
ENDROOT
BRANCH   1   2
ATOM      2  C   UNL     1     -18.533  85.383  31.987  1.00  0.00     0.092 A 
ATOM      3  O   UNL     1     -19.444  86.808  30.309  1.00  0.00    -0.246 OA
ATOM      4  C   UNL     1     -19.581  85.832  31.037  1.00  0.00     0.344 A 
ATOM      5  O   UNL     1     -20.776  85.124  31.014  1.00  0.00    -0.422 OA
ATOM      6  C   UNL     1     -20.956  83.945  31.751  1.00  0.00     0.142 A 
ATOM      7  C   UNL     1     -18.748  84.286  32.740  1.00  0.00     0.138 A 
ATOM      8  C   UNL     1     -22.159  83.263  31.561  1.00  0.00     0.048 A 
ATOM      9  C   UNL     1     -19.961  83.477  32.602  1.00  0.00     0.060 A 
ATOM     10  C   UNL     1     -22.372  82.062  32.229  1.00  0.00     0.004 A 
ATOM     11  C   UNL     1     -20.180  82.251  33.246  1.00  0.00     0.016 A 
ATOM     12  C   UNL     1     -21.379  81.552  33.066  1.00  0.00     0.001 A 
BRANCH   7  13
ATOM     13  O   UNL     1     -17.823  83.888  33.687  1.00  0.00    -0.507 OA
ATOM     14  H   UNL     1     -17.735  84.592  34.351  1.00  0.00     0.293 HD
ENDBRANCH   7  13
ENDBRANCH   1   2
BRANCH   1  15
ATOM     15  C   UNL     1     -16.337  86.154  30.890  1.00  0.00    -0.035 A 
ATOM     16  C   UNL     1     -15.373  87.161  30.693  1.00  0.00     0.005 A 
ATOM     17  C   UNL     1     -16.420  85.122  29.941  1.00  0.00     0.005 A 
ATOM     18  C   UNL     1     -14.512  87.126  29.594  1.00  0.00     0.000 A 
ATOM     19  C   UNL     1     -15.559  85.090  28.841  1.00  0.00     0.000 A 
ATOM     20  C   UNL     1     -14.604  86.088  28.669  1.00  0.00     0.000 A 
ENDBRANCH   1  15
BRANCH   1  21
ATOM     21  C   UNL     1     -17.438  87.588  32.785  1.00  0.00     0.092 A 
ATOM     22  C   UNL     1     -17.565  88.706  32.043  1.00  0.00     0.138 A 
ATOM     23  C   UNL     1     -17.502  87.684  34.271  1.00  0.00     0.344 A 
ATOM     24  C   UNL     1     -17.717  90.031  32.650  1.00  0.00     0.060 A 
ATOM     25  O   UNL     1     -17.800  88.932  34.810  1.00  0.00    -0.422 OA
ATOM     26  O   UNL     1     -17.353  86.732  35.026  1.00  0.00    -0.246 OA
ATOM     27  C   UNL     1     -17.707  91.241  31.939  1.00  0.00     0.016 A 
ATOM     28  C   UNL     1     -17.859  90.095  34.029  1.00  0.00     0.142 A 
ATOM     29  C   UNL     1     -17.879  92.461  32.605  1.00  0.00     0.001 A 
ATOM     30  C   UNL     1     -18.034  91.301  34.708  1.00  0.00     0.048 A 
ATOM     31  C   UNL     1     -18.050  92.490  33.988  1.00  0.00     0.004 A 
BRANCH  22  32
ATOM     32  O   UNL     1     -17.561  88.637  30.660  1.00  0.00    -0.507 OA
ATOM     33  H   UNL     1     -16.645  88.514  30.359  1.00  0.00     0.293 HD
ENDBRANCH  22  32
ENDBRANCH   1  21
TORSDOF 5
ENDMDL
MODEL 17
REMARK VINA RESULT:    -9.457      3.243      5.978
REMARK INTER + INTRA:         -12.021
REMARK INTER:                 -12.542
REMARK INTRA:                   0.521
REMARK UNBOUND:                -0.352
REMARK SMILES O=c1oc2ccccc2c(O)c1C(c1ccccc1)c1c(O)c2ccccc2oc1=O
REMARK SMILES IDX 13 1 12 2 1 3 2 4 3 5 4 6 10 7 5 8 9 9 6 10 8 11 7 12 11 13
REMARK SMILES IDX 14 15 15 16 19 17 16 18 18 19 17 20 20 21 21 22 30 23 23 24
REMARK SMILES IDX 29 25 31 26 24 27 28 28 25 29 27 30 26 31 22 32
REMARK H PARENT 11 14 22 33
ROOT
ATOM      1  C   UNL     1     -15.416  83.998  34.630  1.00  0.00     0.102 C 
ENDROOT
BRANCH   1   2
ATOM      2  C   UNL     1     -16.463  84.589  33.679  1.00  0.00     0.092 A 
ATOM      3  O   UNL     1     -14.836  85.138  32.027  1.00  0.00    -0.246 OA
ATOM      4  C   UNL     1     -16.006  85.167  32.391  1.00  0.00     0.344 A 
ATOM      5  O   UNL     1     -16.955  85.796  31.594  1.00  0.00    -0.422 OA
ATOM      6  C   UNL     1     -18.321  85.779  31.909  1.00  0.00     0.142 A 
ATOM      7  C   UNL     1     -17.771  84.641  34.000  1.00  0.00     0.138 A 
ATOM      8  C   UNL     1     -19.188  86.350  30.976  1.00  0.00     0.048 A 
ATOM      9  C   UNL     1     -18.773  85.190  33.084  1.00  0.00     0.060 A 
ATOM     10  C   UNL     1     -20.558  86.317  31.213  1.00  0.00     0.004 A 
ATOM     11  C   UNL     1     -20.159  85.140  33.295  1.00  0.00     0.016 A 
ATOM     12  C   UNL     1     -21.044  85.704  32.368  1.00  0.00     0.001 A 
BRANCH   7  13
ATOM     13  O   UNL     1     -18.215  84.179  35.226  1.00  0.00    -0.507 OA
ATOM     14  H   UNL     1     -18.326  84.938  35.822  1.00  0.00     0.293 HD
ENDBRANCH   7  13
ENDBRANCH   1   2
BRANCH   1  15
ATOM     15  C   UNL     1     -15.626  84.378  36.103  1.00  0.00    -0.035 A 
ATOM     16  C   UNL     1     -15.320  85.684  36.529  1.00  0.00     0.005 A 
ATOM     17  C   UNL     1     -16.114  83.467  37.054  1.00  0.00     0.005 A 
ATOM     18  C   UNL     1     -15.512  86.069  37.858  1.00  0.00     0.000 A 
ATOM     19  C   UNL     1     -16.303  83.854  38.383  1.00  0.00     0.000 A 
ATOM     20  C   UNL     1     -16.005  85.154  38.784  1.00  0.00     0.000 A 
ENDBRANCH   1  15
BRANCH   1  21
ATOM     21  C   UNL     1     -15.004  82.554  34.329  1.00  0.00     0.092 A 
ATOM     22  C   UNL     1     -15.932  81.615  34.051  1.00  0.00     0.138 A 
ATOM     23  C   UNL     1     -13.561  82.183  34.318  1.00  0.00     0.344 A 
ATOM     24  C   UNL     1     -15.573  80.220  33.783  1.00  0.00     0.060 A 
ATOM     25  O   UNL     1     -13.245  80.889  33.909  1.00  0.00    -0.422 OA
ATOM     26  O   UNL     1     -12.653  82.954  34.600  1.00  0.00    -0.246 OA
ATOM     27  C   UNL     1     -16.495  79.174  33.632  1.00  0.00     0.016 A 
ATOM     28  C   UNL     1     -14.223  79.909  33.692  1.00  0.00     0.142 A 
ATOM     29  C   UNL     1     -16.058  77.871  33.358  1.00  0.00     0.001 A 
ATOM     30  C   UNL     1     -13.770  78.618  33.418  1.00  0.00     0.048 A 
ATOM     31  C   UNL     1     -14.697  77.596  33.243  1.00  0.00     0.004 A 
BRANCH  22  32
ATOM     32  O   UNL     1     -17.275  81.946  34.004  1.00  0.00    -0.507 OA
ATOM     33  H   UNL     1     -17.776  81.275  34.497  1.00  0.00     0.293 HD
ENDBRANCH  22  32
ENDBRANCH   1  21
TORSDOF 5
ENDMDL
MODEL 18
REMARK VINA RESULT:    -9.298      2.470      7.266
REMARK INTER + INTRA:         -11.825
REMARK INTER:                 -11.492
REMARK INTRA:                  -0.333
REMARK UNBOUND:                -0.352
REMARK SMILES O=c1oc2ccccc2c(O)c1C(c1ccccc1)c1c(O)c2ccccc2oc1=O
REMARK SMILES IDX 13 1 12 2 1 3 2 4 3 5 4 6 10 7 5 8 9 9 6 10 8 11 7 12 11 13
REMARK SMILES IDX 14 15 15 16 19 17 16 18 18 19 17 20 20 21 21 22 30 23 23 24
REMARK SMILES IDX 29 25 31 26 24 27 28 28 25 29 27 30 26 31 22 32
REMARK H PARENT 11 14 22 33
ROOT
ATOM      1  C   UNL     1     -16.543  84.586  33.065  1.00  0.00     0.102 C 
ENDROOT
BRANCH   1   2
ATOM      2  C   UNL     1     -17.870  83.817  33.086  1.00  0.00     0.092 A 
ATOM      3  O   UNL     1     -18.330  84.426  35.343  1.00  0.00    -0.246 OA
ATOM      4  C   UNL     1     -18.660  83.801  34.341  1.00  0.00     0.344 A 
ATOM      5  O   UNL     1     -19.801  83.008  34.375  1.00  0.00    -0.422 OA
ATOM      6  C   UNL     1     -20.281  82.348  33.235  1.00  0.00     0.142 A 
ATOM      7  C   UNL     1     -18.308  83.121  32.018  1.00  0.00     0.138 A 
ATOM      8  C   UNL     1     -21.496  81.672  33.366  1.00  0.00     0.048 A 
ATOM      9  C   UNL     1     -19.584  82.400  32.034  1.00  0.00     0.060 A 
ATOM     10  C   UNL     1     -22.045  81.041  32.255  1.00  0.00     0.004 A 
ATOM     11  C   UNL     1     -20.164  81.783  30.917  1.00  0.00     0.016 A 
ATOM     12  C   UNL     1     -21.383  81.103  31.029  1.00  0.00     0.001 A 
BRANCH   7  13
ATOM     13  O   UNL     1     -17.555  83.055  30.861  1.00  0.00    -0.507 OA
ATOM     14  H   UNL     1     -17.416  82.121  30.633  1.00  0.00     0.293 HD
ENDBRANCH   7  13
ENDBRANCH   1   2
BRANCH   1  15
ATOM     15  C   UNL     1     -15.321  83.732  33.431  1.00  0.00    -0.035 A 
ATOM     16  C   UNL     1     -14.131  84.367  33.832  1.00  0.00     0.005 A 
ATOM     17  C   UNL     1     -15.338  82.329  33.378  1.00  0.00     0.005 A 
ATOM     18  C   UNL     1     -13.003  83.622  34.186  1.00  0.00     0.000 A 
ATOM     19  C   UNL     1     -14.209  81.586  33.730  1.00  0.00     0.000 A 
ATOM     20  C   UNL     1     -13.044  82.231  34.136  1.00  0.00     0.000 A 
ENDBRANCH   1  15
BRANCH   1  21
ATOM     21  C   UNL     1     -16.385  85.579  31.909  1.00  0.00     0.092 A 
ATOM     22  C   UNL     1     -16.941  86.806  31.972  1.00  0.00     0.138 A 
ATOM     23  C   UNL     1     -15.588  85.197  30.709  1.00  0.00     0.344 A 
ATOM     24  C   UNL     1     -16.829  87.769  30.874  1.00  0.00     0.060 A 
ATOM     25  O   UNL     1     -15.372  86.187  29.754  1.00  0.00    -0.422 OA
ATOM     26  O   UNL     1     -15.084  84.094  30.544  1.00  0.00    -0.246 OA
ATOM     27  C   UNL     1     -17.503  88.998  30.819  1.00  0.00     0.016 A 
ATOM     28  C   UNL     1     -16.014  87.432  29.802  1.00  0.00     0.142 A 
ATOM     29  C   UNL     1     -17.319  89.866  29.734  1.00  0.00     0.001 A 
ATOM     30  C   UNL     1     -15.817  88.284  28.715  1.00  0.00     0.048 A 
ATOM     31  C   UNL     1     -16.470  89.512  28.687  1.00  0.00     0.004 A 
BRANCH  22  32
ATOM     32  O   UNL     1     -17.642  87.203  33.097  1.00  0.00    -0.507 OA
ATOM     33  H   UNL     1     -17.395  88.120  33.307  1.00  0.00     0.293 HD
ENDBRANCH  22  32
ENDBRANCH   1  21
TORSDOF 5
ENDMDL
MODEL 19
REMARK VINA RESULT:    -9.245      2.154      4.903
REMARK INTER + INTRA:         -11.759
REMARK INTER:                 -12.111
REMARK INTRA:                   0.352
REMARK UNBOUND:                -0.352
REMARK SMILES O=c1oc2ccccc2c(O)c1C(c1ccccc1)c1c(O)c2ccccc2oc1=O
REMARK SMILES IDX 13 1 12 2 1 3 2 4 3 5 4 6 10 7 5 8 9 9 6 10 8 11 7 12 11 13
REMARK SMILES IDX 14 15 15 16 19 17 16 18 18 19 17 20 20 21 21 22 30 23 23 24
REMARK SMILES IDX 29 25 31 26 24 27 28 28 25 29 27 30 26 31 22 32
REMARK H PARENT 11 14 22 33
ROOT
ATOM      1  C   UNL     1     -17.007  84.850  33.344  1.00  0.00     0.102 C 
ENDROOT
BRANCH   1   2
ATOM      2  C   UNL     1     -17.139  86.272  32.785  1.00  0.00     0.092 A 
ATOM      3  O   UNL     1     -18.414  87.021  34.653  1.00  0.00    -0.246 OA
ATOM      4  C   UNL     1     -17.921  87.268  33.558  1.00  0.00     0.344 A 
ATOM      5  O   UNL     1     -18.122  88.517  32.983  1.00  0.00    -0.422 OA
ATOM      6  C   UNL     1     -17.506  88.890  31.780  1.00  0.00     0.142 A 
ATOM      7  C   UNL     1     -16.609  86.624  31.597  1.00  0.00     0.138 A 
ATOM      8  C   UNL     1     -17.696  90.207  31.360  1.00  0.00     0.048 A 
ATOM      9  C   UNL     1     -16.721  87.987  31.072  1.00  0.00     0.060 A 
ATOM     10  C   UNL     1     -17.067  90.647  30.199  1.00  0.00     0.004 A 
ATOM     11  C   UNL     1     -16.072  88.453  29.920  1.00  0.00     0.016 A 
ATOM     12  C   UNL     1     -16.249  89.772  29.484  1.00  0.00     0.001 A 
BRANCH   7  13
ATOM     13  O   UNL     1     -15.941  85.696  30.819  1.00  0.00    -0.507 OA
ATOM     14  H   UNL     1     -15.111  86.092  30.506  1.00  0.00     0.293 HD
ENDBRANCH   7  13
ENDBRANCH   1   2
BRANCH   1  15
ATOM     15  C   UNL     1     -16.791  84.794  34.862  1.00  0.00    -0.035 A 
ATOM     16  C   UNL     1     -17.556  83.901  35.636  1.00  0.00     0.005 A 
ATOM     17  C   UNL     1     -15.856  85.608  35.522  1.00  0.00     0.005 A 
ATOM     18  C   UNL     1     -17.377  83.813  37.019  1.00  0.00     0.000 A 
ATOM     19  C   UNL     1     -15.681  85.520  36.905  1.00  0.00     0.000 A 
ATOM     20  C   UNL     1     -16.438  84.622  37.652  1.00  0.00     0.000 A 
ENDBRANCH   1  15
BRANCH   1  21
ATOM     21  C   UNL     1     -17.960  83.819  32.732  1.00  0.00     0.092 A 
ATOM     22  C   UNL     1     -19.291  84.029  32.723  1.00  0.00     0.138 A 
ATOM     23  C   UNL     1     -17.410  82.578  32.115  1.00  0.00     0.344 A 
ATOM     24  C   UNL     1     -20.231  83.052  32.167  1.00  0.00     0.060 A 
ATOM     25  O   UNL     1     -18.315  81.745  31.461  1.00  0.00    -0.422 OA
ATOM     26  O   UNL     1     -16.223  82.281  32.115  1.00  0.00    -0.246 OA
ATOM     27  C   UNL     1     -21.628  83.146  32.259  1.00  0.00     0.016 A 
ATOM     28  C   UNL     1     -19.701  81.943  31.522  1.00  0.00     0.142 A 
ATOM     29  C   UNL     1     -22.449  82.170  31.679  1.00  0.00     0.001 A 
ATOM     30  C   UNL     1     -20.503  80.963  30.937  1.00  0.00     0.048 A 
ATOM     31  C   UNL     1     -21.886  81.084  31.011  1.00  0.00     0.004 A 
BRANCH  22  32
ATOM     32  O   UNL     1     -19.823  85.197  33.242  1.00  0.00    -0.507 OA
ATOM     33  H   UNL     1     -20.698  84.999  33.616  1.00  0.00     0.293 HD
ENDBRANCH  22  32
ENDBRANCH   1  21
TORSDOF 5
ENDMDL
MODEL 20
REMARK VINA RESULT:    -9.096      2.801      6.668
REMARK INTER + INTRA:         -11.575
REMARK INTER:                 -12.042
REMARK INTRA:                   0.468
REMARK UNBOUND:                -0.352
REMARK SMILES O=c1oc2ccccc2c(O)c1C(c1ccccc1)c1c(O)c2ccccc2oc1=O
REMARK SMILES IDX 13 1 12 2 1 3 2 4 3 5 4 6 10 7 5 8 9 9 6 10 8 11 7 12 11 13
REMARK SMILES IDX 14 15 15 16 19 17 16 18 18 19 17 20 20 21 21 22 30 23 23 24
REMARK SMILES IDX 29 25 31 26 24 27 28 28 25 29 27 30 26 31 22 32
REMARK H PARENT 11 14 22 33
ROOT
ATOM      1  C   UNL     1     -16.972  85.547  32.266  1.00  0.00     0.102 C 
ENDROOT
BRANCH   1   2
ATOM      2  C   UNL     1     -16.162  85.027  33.460  1.00  0.00     0.092 A 
ATOM      3  O   UNL     1     -14.708  83.745  32.075  1.00  0.00    -0.246 OA
ATOM      4  C   UNL     1     -15.049  84.081  33.204  1.00  0.00     0.344 A 
ATOM      5  O   UNL     1     -14.400  83.536  34.305  1.00  0.00    -0.422 OA
ATOM      6  C   UNL     1     -14.679  83.953  35.614  1.00  0.00     0.142 A 
ATOM      7  C   UNL     1     -16.464  85.367  34.729  1.00  0.00     0.138 A 
ATOM      8  C   UNL     1     -13.885  83.412  36.628  1.00  0.00     0.048 A 
ATOM      9  C   UNL     1     -15.680  84.883  35.868  1.00  0.00     0.060 A 
ATOM     10  C   UNL     1     -14.084  83.828  37.940  1.00  0.00     0.004 A 
ATOM     11  C   UNL     1     -15.849  85.312  37.192  1.00  0.00     0.016 A 
ATOM     12  C   UNL     1     -15.061  84.783  38.221  1.00  0.00     0.001 A 
BRANCH   7  13
ATOM     13  O   UNL     1     -17.544  86.185  35.003  1.00  0.00    -0.507 OA
ATOM     14  H   UNL     1     -18.275  85.637  35.332  1.00  0.00     0.293 HD
ENDBRANCH   7  13
ENDBRANCH   1   2
BRANCH   1  15
ATOM     15  C   UNL     1     -16.137  85.774  30.998  1.00  0.00    -0.035 A 
ATOM     16  C   UNL     1     -15.314  86.912  30.908  1.00  0.00     0.005 A 
ATOM     17  C   UNL     1     -16.162  84.886  29.910  1.00  0.00     0.005 A 
ATOM     18  C   UNL     1     -14.530  87.144  29.776  1.00  0.00     0.000 A 
ATOM     19  C   UNL     1     -15.378  85.121  28.777  1.00  0.00     0.000 A 
ATOM     20  C   UNL     1     -14.561  86.247  28.711  1.00  0.00     0.000 A 
ENDBRANCH   1  15
BRANCH   1  21
ATOM     21  C   UNL     1     -18.355  84.914  32.092  1.00  0.00     0.092 A 
ATOM     22  C   UNL     1     -18.498  83.575  32.024  1.00  0.00     0.138 A 
ATOM     23  C   UNL     1     -19.564  85.783  32.021  1.00  0.00     0.344 A 
ATOM     24  C   UNL     1     -19.804  82.939  31.834  1.00  0.00     0.060 A 
ATOM     25  O   UNL     1     -20.801  85.143  31.995  1.00  0.00    -0.422 OA
ATOM     26  O   UNL     1     -19.529  87.007  32.030  1.00  0.00    -0.246 OA
ATOM     27  C   UNL     1     -19.999  81.567  31.611  1.00  0.00     0.016 A 
ATOM     28  C   UNL     1     -20.927  83.754  31.855  1.00  0.00     0.142 A 
ATOM     29  C   UNL     1     -21.291  81.045  31.459  1.00  0.00     0.001 A 
ATOM     30  C   UNL     1     -22.220  83.252  31.707  1.00  0.00     0.048 A 
ATOM     31  C   UNL     1     -22.401  81.887  31.515  1.00  0.00     0.004 A 
BRANCH  22  32
ATOM     32  O   UNL     1     -17.398  82.743  32.140  1.00  0.00    -0.507 OA
ATOM     33  H   UNL     1     -16.665  83.253  32.527  1.00  0.00     0.293 HD
ENDBRANCH  22  32
ENDBRANCH   1  21
TORSDOF 5
ENDMDL
