MODEL 1
REMARK VINA RESULT:    -4.977      0.000      0.000
REMARK INTER + INTRA:          -7.765
REMARK INTER:                  -6.578
REMARK INTRA:                  -1.187
REMARK UNBOUND:                -1.187
REMARK SMILES CC(=O)C[C@H](c1ccc([N+](=O)[O-])cc1)c1c(O)c(=O)oc2ccccc12
REMARK SMILES IDX 5 1 6 2 7 3 8 4 9 5 14 6 13 7 10 8 11 9 12 10 15 11 16 12
REMARK SMILES IDX 26 13 18 14 25 15 21 16 19 17 20 18 24 19 22 20 23 21 17 22
REMARK SMILES IDX 4 24 2 25 3 26 1 27
REMARK H PARENT 17 23
ROOT
ATOM      1  C   UNL     1     -23.208 -26.655  -1.062  1.00  0.00     0.061 C 
ENDROOT
BRANCH   1   2
ATOM      2  C   UNL     1     -23.772 -28.022  -0.651  1.00  0.00    -0.039 A 
ATOM      3  C   UNL     1     -23.304 -28.648   0.518  1.00  0.00     0.011 A 
ATOM      4  C   UNL     1     -23.794 -29.898   0.907  1.00  0.00     0.086 A 
ATOM      5  C   UNL     1     -24.755 -30.538   0.118  1.00  0.00     0.269 A 
ATOM      6  C   UNL     1     -24.727 -28.689  -1.438  1.00  0.00     0.011 A 
ATOM      7  C   UNL     1     -25.223 -29.938  -1.057  1.00  0.00     0.086 A 
BRANCH   5   8
ATOM      8  N   UNL     1     -25.274 -31.850   0.522  1.00  0.00     0.062 N 
ATOM      9  O   UNL     1     -25.193 -32.779  -0.294  1.00  0.00    -0.258 OA
ATOM     10  O   UNL     1     -25.760 -31.955   1.658  1.00  0.00    -0.258 OA
ENDBRANCH   5   8
ENDBRANCH   1   2
BRANCH   1  11
ATOM     11  C   UNL     1     -23.067 -25.705   0.147  1.00  0.00     0.020 A 
ATOM     12  C   UNL     1     -24.105 -25.217   0.855  1.00  0.00     0.206 A 
ATOM     13  C   UNL     1     -21.705 -25.273   0.565  1.00  0.00     0.025 A 
ATOM     14  C   UNL     1     -23.940 -24.281   1.997  1.00  0.00     0.379 A 
ATOM     15  C   UNL     1     -20.517 -25.705  -0.045  1.00  0.00     0.012 A 
ATOM     16  C   UNL     1     -21.567 -24.382   1.634  1.00  0.00     0.139 A 
ATOM     17  O   UNL     1     -24.946 -23.895   2.591  1.00  0.00    -0.242 OA
ATOM     18  O   UNL     1     -22.673 -23.882   2.337  1.00  0.00    -0.420 OA
ATOM     19  C   UNL     1     -19.262 -25.260   0.395  1.00  0.00     0.001 A 
ATOM     20  C   UNL     1     -20.323 -23.928   2.084  1.00  0.00     0.048 A 
ATOM     21  C   UNL     1     -19.165 -24.370   1.459  1.00  0.00     0.004 A 
BRANCH  12  22
ATOM     22  O   UNL     1     -25.418 -25.581   0.581  1.00  0.00    -0.502 OA
ATOM     23  H   UNL     1     -25.972 -24.886   1.004  1.00  0.00     0.293 HD
ENDBRANCH  12  22
ENDBRANCH   1  11
BRANCH   1  24
ATOM     24  C   UNL     1     -23.997 -26.109  -2.276  1.00  0.00     0.088 C 
BRANCH  24  25
ATOM     25  C   UNL     1     -23.134 -25.962  -3.518  1.00  0.00     0.130 C 
ATOM     26  O   UNL     1     -23.483 -25.294  -4.493  1.00  0.00    -0.300 OA
ATOM     27  C   UNL     1     -21.844 -26.738  -3.534  1.00  0.00     0.087 C 
ENDBRANCH  24  25
ENDBRANCH   1  24
TORSDOF 6
ENDMDL
MODEL 2
REMARK VINA RESULT:    -4.835      3.553      5.864
REMARK INTER + INTRA:          -7.577
REMARK INTER:                  -6.514
REMARK INTRA:                  -1.063
REMARK UNBOUND:                -1.187
REMARK SMILES CC(=O)C[C@H](c1ccc([N+](=O)[O-])cc1)c1c(O)c(=O)oc2ccccc12
REMARK SMILES IDX 5 1 6 2 7 3 8 4 9 5 14 6 13 7 10 8 11 9 12 10 15 11 16 12
REMARK SMILES IDX 26 13 18 14 25 15 21 16 19 17 20 18 24 19 22 20 23 21 17 22
REMARK SMILES IDX 4 24 2 25 3 26 1 27
REMARK H PARENT 17 23
ROOT
ATOM      1  C   UNL     1     -23.089 -25.540   1.698  1.00  0.00     0.061 C 
ENDROOT
BRANCH   1   2
ATOM      2  C   UNL     1     -23.011 -25.693   0.173  1.00  0.00    -0.039 A 
ATOM      3  C   UNL     1     -24.184 -25.924  -0.567  1.00  0.00     0.011 A 
ATOM      4  C   UNL     1     -24.137 -26.078  -1.956  1.00  0.00     0.086 A 
ATOM      5  C   UNL     1     -22.906 -26.010  -2.616  1.00  0.00     0.269 A 
ATOM      6  C   UNL     1     -21.782 -25.644  -0.507  1.00  0.00     0.011 A 
ATOM      7  C   UNL     1     -21.726 -25.795  -1.895  1.00  0.00     0.086 A 
BRANCH   5   8
ATOM      8  N   UNL     1     -22.850 -26.170  -4.074  1.00  0.00     0.062 N 
ATOM      9  O   UNL     1     -22.142 -27.080  -4.528  1.00  0.00    -0.258 OA
ATOM     10  O   UNL     1     -23.518 -25.388  -4.767  1.00  0.00    -0.258 OA
ENDBRANCH   5   8
ENDBRANCH   1   2
BRANCH   1  11
ATOM     11  C   UNL     1     -23.287 -24.067   2.118  1.00  0.00     0.020 A 
ATOM     12  C   UNL     1     -22.282 -23.185   2.291  1.00  0.00     0.206 A 
ATOM     13  C   UNL     1     -24.667 -23.571   2.371  1.00  0.00     0.025 A 
ATOM     14  C   UNL     1     -22.501 -21.781   2.724  1.00  0.00     0.379 A 
ATOM     15  C   UNL     1     -25.827 -24.347   2.214  1.00  0.00     0.012 A 
ATOM     16  C   UNL     1     -24.856 -22.251   2.789  1.00  0.00     0.139 A 
ATOM     17  O   UNL     1     -21.522 -21.044   2.846  1.00  0.00    -0.242 OA
ATOM     18  O   UNL     1     -23.783 -21.366   2.975  1.00  0.00    -0.420 OA
ATOM     19  C   UNL     1     -27.102 -23.823   2.469  1.00  0.00     0.001 A 
ATOM     20  C   UNL     1     -26.121 -21.712   3.050  1.00  0.00     0.048 A 
ATOM     21  C   UNL     1     -27.249 -22.506   2.889  1.00  0.00     0.004 A 
BRANCH  12  22
ATOM     22  O   UNL     1     -20.956 -23.523   2.047  1.00  0.00    -0.502 OA
ATOM     23  H   UNL     1     -20.503 -23.433   2.915  1.00  0.00     0.293 HD
ENDBRANCH  12  22
ENDBRANCH   1  11
BRANCH   1  24
ATOM     24  C   UNL     1     -21.909 -26.290   2.358  1.00  0.00     0.088 C 
BRANCH  24  25
ATOM     25  C   UNL     1     -22.183 -26.655   3.808  1.00  0.00     0.130 C 
ATOM     26  O   UNL     1     -21.310 -26.619   4.678  1.00  0.00    -0.300 OA
ATOM     27  C   UNL     1     -23.574 -27.134   4.127  1.00  0.00     0.087 C 
ENDBRANCH  24  25
ENDBRANCH   1  24
TORSDOF 6
ENDMDL
MODEL 3
REMARK VINA RESULT:    -4.792      3.153      5.408
REMARK INTER + INTRA:          -7.520
REMARK INTER:                  -6.310
REMARK INTRA:                  -1.210
REMARK UNBOUND:                -1.187
REMARK SMILES CC(=O)C[C@H](c1ccc([N+](=O)[O-])cc1)c1c(O)c(=O)oc2ccccc12
REMARK SMILES IDX 5 1 6 2 7 3 8 4 9 5 14 6 13 7 10 8 11 9 12 10 15 11 16 12
REMARK SMILES IDX 26 13 18 14 25 15 21 16 19 17 20 18 24 19 22 20 23 21 17 22
REMARK SMILES IDX 4 24 2 25 3 26 1 27
REMARK H PARENT 17 23
ROOT
ATOM      1  C   UNL     1     -23.878 -25.481   2.157  1.00  0.00     0.061 C 
ENDROOT
BRANCH   1   2
ATOM      2  C   UNL     1     -23.620 -26.555   3.223  1.00  0.00    -0.039 A 
ATOM      3  C   UNL     1     -23.739 -26.229   4.586  1.00  0.00     0.011 A 
ATOM      4  C   UNL     1     -23.498 -27.186   5.576  1.00  0.00     0.086 A 
ATOM      5  C   UNL     1     -23.126 -28.482   5.205  1.00  0.00     0.269 A 
ATOM      6  C   UNL     1     -23.230 -27.858   2.872  1.00  0.00     0.011 A 
ATOM      7  C   UNL     1     -22.988 -28.822   3.855  1.00  0.00     0.086 A 
BRANCH   5   8
ATOM      8  N   UNL     1     -22.872 -29.492   6.240  1.00  0.00     0.062 N 
ATOM      9  O   UNL     1     -22.654 -29.094   7.393  1.00  0.00    -0.258 OA
ATOM     10  O   UNL     1     -22.893 -30.684   5.901  1.00  0.00    -0.258 OA
ENDBRANCH   5   8
ENDBRANCH   1   2
BRANCH   1  11
ATOM     11  C   UNL     1     -22.717 -25.389   1.143  1.00  0.00     0.020 A 
ATOM     12  C   UNL     1     -21.470 -24.981   1.452  1.00  0.00     0.206 A 
ATOM     13  C   UNL     1     -22.974 -25.752  -0.277  1.00  0.00     0.025 A 
ATOM     14  C   UNL     1     -20.380 -24.874   0.448  1.00  0.00     0.379 A 
ATOM     15  C   UNL     1     -24.205 -26.220  -0.764  1.00  0.00     0.012 A 
ATOM     16  C   UNL     1     -21.940 -25.635  -1.212  1.00  0.00     0.139 A 
ATOM     17  O   UNL     1     -19.269 -24.501   0.824  1.00  0.00    -0.242 OA
ATOM     18  O   UNL     1     -20.658 -25.190  -0.856  1.00  0.00    -0.420 OA
ATOM     19  C   UNL     1     -24.385 -26.545  -2.116  1.00  0.00     0.001 A 
ATOM     20  C   UNL     1     -22.104 -25.954  -2.565  1.00  0.00     0.048 A 
ATOM     21  C   UNL     1     -23.335 -26.411  -3.017  1.00  0.00     0.004 A 
BRANCH  12  22
ATOM     22  O   UNL     1     -21.103 -24.653   2.752  1.00  0.00    -0.502 OA
ATOM     23  H   UNL     1     -21.912 -24.267   3.159  1.00  0.00     0.293 HD
ENDBRANCH  12  22
ENDBRANCH   1  11
BRANCH   1  24
ATOM     24  C   UNL     1     -24.300 -24.159   2.840  1.00  0.00     0.088 C 
BRANCH  24  25
ATOM     25  C   UNL     1     -25.797 -23.909   2.758  1.00  0.00     0.130 C 
ATOM     26  O   UNL     1     -26.410 -23.266   3.612  1.00  0.00    -0.300 OA
ATOM     27  C   UNL     1     -26.522 -24.548   1.604  1.00  0.00     0.087 C 
ENDBRANCH  24  25
ENDBRANCH   1  24
TORSDOF 6
ENDMDL
MODEL 4
REMARK VINA RESULT:    -4.765      1.296      2.904
REMARK INTER + INTRA:          -7.484
REMARK INTER:                  -6.517
REMARK INTRA:                  -0.967
REMARK UNBOUND:                -1.187
REMARK SMILES CC(=O)C[C@H](c1ccc([N+](=O)[O-])cc1)c1c(O)c(=O)oc2ccccc12
REMARK SMILES IDX 5 1 6 2 7 3 8 4 9 5 14 6 13 7 10 8 11 9 12 10 15 11 16 12
REMARK SMILES IDX 26 13 18 14 25 15 21 16 19 17 20 18 24 19 22 20 23 21 17 22
REMARK SMILES IDX 4 24 2 25 3 26 1 27
REMARK H PARENT 17 23
ROOT
ATOM      1  C   UNL     1     -22.800 -26.593  -0.998  1.00  0.00     0.061 C 
ENDROOT
BRANCH   1   2
ATOM      2  C   UNL     1     -23.330 -27.939  -0.485  1.00  0.00    -0.039 A 
ATOM      3  C   UNL     1     -22.724 -28.551   0.626  1.00  0.00     0.011 A 
ATOM      4  C   UNL     1     -23.181 -29.782   1.106  1.00  0.00     0.086 A 
ATOM      5  C   UNL     1     -24.250 -30.417   0.465  1.00  0.00     0.269 A 
ATOM      6  C   UNL     1     -24.392 -28.601  -1.124  1.00  0.00     0.011 A 
ATOM      7  C   UNL     1     -24.857 -29.831  -0.652  1.00  0.00     0.086 A 
BRANCH   5   8
ATOM      8  N   UNL     1     -24.735 -31.709   0.964  1.00  0.00     0.062 N 
ATOM      9  O   UNL     1     -25.834 -31.731   1.536  1.00  0.00    -0.258 OA
ATOM     10  O   UNL     1     -24.019 -32.705   0.781  1.00  0.00    -0.258 OA
ENDBRANCH   5   8
ENDBRANCH   1   2
BRANCH   1  11
ATOM     11  C   UNL     1     -22.454 -25.633   0.161  1.00  0.00     0.020 A 
ATOM     12  C   UNL     1     -21.203 -25.242   0.476  1.00  0.00     0.206 A 
ATOM     13  C   UNL     1     -23.558 -25.106   1.010  1.00  0.00     0.025 A 
ATOM     14  C   UNL     1     -20.899 -24.339   1.616  1.00  0.00     0.379 A 
ATOM     15  C   UNL     1     -24.918 -25.391   0.805  1.00  0.00     0.012 A 
ATOM     16  C   UNL     1     -23.254 -24.267   2.086  1.00  0.00     0.139 A 
ATOM     17  O   UNL     1     -19.727 -24.028   1.822  1.00  0.00    -0.242 OA
ATOM     18  O   UNL     1     -21.937 -23.895   2.394  1.00  0.00    -0.420 OA
ATOM     19  C   UNL     1     -25.912 -24.864   1.641  1.00  0.00     0.001 A 
ATOM     20  C   UNL     1     -24.234 -23.734   2.930  1.00  0.00     0.048 A 
ATOM     21  C   UNL     1     -25.570 -24.037   2.705  1.00  0.00     0.004 A 
BRANCH  12  22
ATOM     22  O   UNL     1     -20.099 -25.638  -0.268  1.00  0.00    -0.502 OA
ATOM     23  H   UNL     1     -19.548 -26.169   0.350  1.00  0.00     0.293 HD
ENDBRANCH  12  22
ENDBRANCH   1  11
BRANCH   1  24
ATOM     24  C   UNL     1     -23.748 -26.041  -2.088  1.00  0.00     0.088 C 
BRANCH  24  25
ATOM     25  C   UNL     1     -23.089 -25.965  -3.456  1.00  0.00     0.130 C 
ATOM     26  O   UNL     1     -23.560 -25.306  -4.384  1.00  0.00    -0.300 OA
ATOM     27  C   UNL     1     -21.852 -26.800  -3.650  1.00  0.00     0.087 C 
ENDBRANCH  24  25
ENDBRANCH   1  24
TORSDOF 6
ENDMDL
MODEL 5
REMARK VINA RESULT:    -4.730      2.867      6.063
REMARK INTER + INTRA:          -7.439
REMARK INTER:                  -6.390
REMARK INTRA:                  -1.049
REMARK UNBOUND:                -1.187
REMARK SMILES CC(=O)C[C@H](c1ccc([N+](=O)[O-])cc1)c1c(O)c(=O)oc2ccccc12
REMARK SMILES IDX 5 1 6 2 7 3 8 4 9 5 14 6 13 7 10 8 11 9 12 10 15 11 16 12
REMARK SMILES IDX 26 13 18 14 25 15 21 16 19 17 20 18 24 19 22 20 23 21 17 22
REMARK SMILES IDX 4 24 2 25 3 26 1 27
REMARK H PARENT 17 23
ROOT
ATOM      1  C   UNL     1     -23.337 -25.349   0.542  1.00  0.00     0.061 C 
ENDROOT
BRANCH   1   2
ATOM      2  C   UNL     1     -24.252 -24.867   1.677  1.00  0.00    -0.039 A 
ATOM      3  C   UNL     1     -25.628 -24.701   1.442  1.00  0.00     0.011 A 
ATOM      4  C   UNL     1     -26.480 -24.253   2.455  1.00  0.00     0.086 A 
ATOM      5  C   UNL     1     -25.954 -23.958   3.717  1.00  0.00     0.269 A 
ATOM      6  C   UNL     1     -23.741 -24.550   2.947  1.00  0.00     0.011 A 
ATOM      7  C   UNL     1     -24.585 -24.102   3.967  1.00  0.00     0.086 A 
BRANCH   5   8
ATOM      8  N   UNL     1     -26.844 -23.487   4.786  1.00  0.00     0.062 N 
ATOM      9  O   UNL     1     -26.365 -22.732   5.644  1.00  0.00    -0.258 OA
ATOM     10  O   UNL     1     -28.023 -23.871   4.767  1.00  0.00    -0.258 OA
ENDBRANCH   5   8
ENDBRANCH   1   2
BRANCH   1  11
ATOM     11  C   UNL     1     -23.819 -26.689  -0.054  1.00  0.00     0.020 A 
ATOM     12  C   UNL     1     -24.411 -26.816  -1.258  1.00  0.00     0.206 A 
ATOM     13  C   UNL     1     -23.644 -27.934   0.745  1.00  0.00     0.025 A 
ATOM     14  C   UNL     1     -24.890 -28.117  -1.793  1.00  0.00     0.379 A 
ATOM     15  C   UNL     1     -23.026 -27.985   2.004  1.00  0.00     0.012 A 
ATOM     16  C   UNL     1     -24.111 -29.148   0.232  1.00  0.00     0.139 A 
ATOM     17  O   UNL     1     -25.411 -28.138  -2.908  1.00  0.00    -0.242 OA
ATOM     18  O   UNL     1     -24.738 -29.238  -1.019  1.00  0.00    -0.420 OA
ATOM     19  C   UNL     1     -22.892 -29.189   2.708  1.00  0.00     0.001 A 
ATOM     20  C   UNL     1     -23.987 -30.358   0.923  1.00  0.00     0.048 A 
ATOM     21  C   UNL     1     -23.374 -30.376   2.168  1.00  0.00     0.004 A 
BRANCH  12  22
ATOM     22  O   UNL     1     -24.592 -25.731  -2.107  1.00  0.00    -0.502 OA
ATOM     23  H   UNL     1     -24.605 -26.113  -3.014  1.00  0.00     0.293 HD
ENDBRANCH  12  22
ENDBRANCH   1  11
BRANCH   1  24
ATOM     24  C   UNL     1     -21.862 -25.293   1.003  1.00  0.00     0.088 C 
BRANCH  24  25
ATOM     25  C   UNL     1     -20.889 -25.698  -0.092  1.00  0.00     0.130 C 
ATOM     26  O   UNL     1     -20.951 -25.245  -1.236  1.00  0.00    -0.300 OA
ATOM     27  C   UNL     1     -19.872 -26.747   0.270  1.00  0.00     0.087 C 
ENDBRANCH  24  25
ENDBRANCH   1  24
TORSDOF 6
ENDMDL
MODEL 6
REMARK VINA RESULT:    -4.670      8.900     12.221
REMARK INTER + INTRA:          -7.359
REMARK INTER:                  -6.269
REMARK INTRA:                  -1.090
REMARK UNBOUND:                -1.187
REMARK SMILES CC(=O)C[C@H](c1ccc([N+](=O)[O-])cc1)c1c(O)c(=O)oc2ccccc12
REMARK SMILES IDX 5 1 6 2 7 3 8 4 9 5 14 6 13 7 10 8 11 9 12 10 15 11 16 12
REMARK SMILES IDX 26 13 18 14 25 15 21 16 19 17 20 18 24 19 22 20 23 21 17 22
REMARK SMILES IDX 4 24 2 25 3 26 1 27
REMARK H PARENT 17 23
ROOT
ATOM      1  C   UNL     1     -18.817 -16.527   2.023  1.00  0.00     0.061 C 
ENDROOT
BRANCH   1   2
ATOM      2  C   UNL     1     -20.184 -17.119   1.654  1.00  0.00    -0.039 A 
ATOM      3  C   UNL     1     -21.302 -16.275   1.538  1.00  0.00     0.011 A 
ATOM      4  C   UNL     1     -22.561 -16.791   1.215  1.00  0.00     0.086 A 
ATOM      5  C   UNL     1     -22.710 -18.166   1.014  1.00  0.00     0.269 A 
ATOM      6  C   UNL     1     -20.359 -18.501   1.464  1.00  0.00     0.011 A 
ATOM      7  C   UNL     1     -21.612 -19.026   1.140  1.00  0.00     0.086 A 
BRANCH   5   8
ATOM      8  N   UNL     1     -24.029 -18.715   0.674  1.00  0.00     0.062 N 
ATOM      9  O   UNL     1     -24.804 -17.995   0.029  1.00  0.00    -0.258 OA
ATOM     10  O   UNL     1     -24.289 -19.867   1.050  1.00  0.00    -0.258 OA
ENDBRANCH   5   8
ENDBRANCH   1   2
BRANCH   1  11
ATOM     11  C   UNL     1     -18.034 -16.070   0.773  1.00  0.00     0.020 A 
ATOM     12  C   UNL     1     -17.264 -16.880   0.019  1.00  0.00     0.206 A 
ATOM     13  C   UNL     1     -18.105 -14.640   0.365  1.00  0.00     0.025 A 
ATOM     14  C   UNL     1     -16.499 -16.404  -1.162  1.00  0.00     0.379 A 
ATOM     15  C   UNL     1     -18.878 -13.668   1.021  1.00  0.00     0.012 A 
ATOM     16  C   UNL     1     -17.371 -14.205  -0.742  1.00  0.00     0.139 A 
ATOM     17  O   UNL     1     -15.830 -17.220  -1.796  1.00  0.00    -0.242 OA
ATOM     18  O   UNL     1     -16.566 -15.075  -1.493  1.00  0.00    -0.420 OA
ATOM     19  C   UNL     1     -18.904 -12.335   0.588  1.00  0.00     0.001 A 
ATOM     20  C   UNL     1     -17.383 -12.878  -1.186  1.00  0.00     0.048 A 
ATOM     21  C   UNL     1     -18.155 -11.939  -0.514  1.00  0.00     0.004 A 
BRANCH  12  22
ATOM     22  O   UNL     1     -17.152 -18.240   0.280  1.00  0.00    -0.502 OA
ATOM     23  H   UNL     1     -17.370 -18.339   1.235  1.00  0.00     0.293 HD
ENDBRANCH  12  22
ENDBRANCH   1  11
BRANCH   1  24
ATOM     24  C   UNL     1     -18.076 -17.487   2.983  1.00  0.00     0.088 C 
BRANCH  24  25
ATOM     25  C   UNL     1     -18.245 -17.101   4.444  1.00  0.00     0.130 C 
ATOM     26  O   UNL     1     -18.140 -17.915   5.362  1.00  0.00    -0.300 OA
ATOM     27  C   UNL     1     -18.621 -15.669   4.719  1.00  0.00     0.087 C 
ENDBRANCH  24  25
ENDBRANCH   1  24
TORSDOF 6
ENDMDL
MODEL 7
REMARK VINA RESULT:    -4.555      4.069      6.615
REMARK INTER + INTRA:          -7.207
REMARK INTER:                  -6.457
REMARK INTRA:                  -0.750
REMARK UNBOUND:                -1.187
REMARK SMILES CC(=O)C[C@H](c1ccc([N+](=O)[O-])cc1)c1c(O)c(=O)oc2ccccc12
REMARK SMILES IDX 5 1 6 2 7 3 8 4 9 5 14 6 13 7 10 8 11 9 12 10 15 11 16 12
REMARK SMILES IDX 26 13 18 14 25 15 21 16 19 17 20 18 24 19 22 20 23 21 17 22
REMARK SMILES IDX 4 24 2 25 3 26 1 27
REMARK H PARENT 17 23
ROOT
ATOM      1  C   UNL     1     -25.144 -23.901   2.189  1.00  0.00     0.061 C 
ENDROOT
BRANCH   1   2
ATOM      2  C   UNL     1     -26.643 -23.986   2.511  1.00  0.00    -0.039 A 
ATOM      3  C   UNL     1     -27.543 -24.439   1.531  1.00  0.00     0.011 A 
ATOM      4  C   UNL     1     -28.914 -24.514   1.795  1.00  0.00     0.086 A 
ATOM      5  C   UNL     1     -29.396 -24.125   3.049  1.00  0.00     0.269 A 
ATOM      6  C   UNL     1     -27.149 -23.584   3.759  1.00  0.00     0.011 A 
ATOM      7  C   UNL     1     -28.518 -23.657   4.033  1.00  0.00     0.086 A 
BRANCH   5   8
ATOM      8  N   UNL     1     -30.834 -24.202   3.333  1.00  0.00     0.062 N 
ATOM      9  O   UNL     1     -31.617 -24.112   2.377  1.00  0.00    -0.258 OA
ATOM     10  O   UNL     1     -31.181 -24.356   4.514  1.00  0.00    -0.258 OA
ENDBRANCH   5   8
ENDBRANCH   1   2
BRANCH   1  11
ATOM     11  C   UNL     1     -24.499 -25.301   2.090  1.00  0.00     0.020 A 
ATOM     12  C   UNL     1     -24.292 -25.961   0.933  1.00  0.00     0.206 A 
ATOM     13  C   UNL     1     -24.087 -25.992   3.342  1.00  0.00     0.025 A 
ATOM     14  C   UNL     1     -23.695 -27.320   0.871  1.00  0.00     0.379 A 
ATOM     15  C   UNL     1     -24.206 -25.438   4.627  1.00  0.00     0.012 A 
ATOM     16  C   UNL     1     -23.537 -27.275   3.267  1.00  0.00     0.139 A 
ATOM     17  O   UNL     1     -23.535 -27.841  -0.232  1.00  0.00    -0.242 OA
ATOM     18  O   UNL     1     -23.352 -27.938   2.045  1.00  0.00    -0.420 OA
ATOM     19  C   UNL     1     -23.800 -26.140   5.770  1.00  0.00     0.001 A 
ATOM     20  C   UNL     1     -23.128 -27.990   4.398  1.00  0.00     0.048 A 
ATOM     21  C   UNL     1     -23.262 -27.417   5.656  1.00  0.00     0.004 A 
BRANCH  12  22
ATOM     22  O   UNL     1     -24.601 -25.400  -0.300  1.00  0.00    -0.502 OA
ATOM     23  H   UNL     1     -25.488 -24.989  -0.182  1.00  0.00     0.293 HD
ENDBRANCH  12  22
ENDBRANCH   1  11
BRANCH   1  24
ATOM     24  C   UNL     1     -24.462 -22.897   3.147  1.00  0.00     0.088 C 
BRANCH  24  25
ATOM     25  C   UNL     1     -23.328 -22.132   2.485  1.00  0.00     0.130 C 
ATOM     26  O   UNL     1     -22.185 -22.585   2.396  1.00  0.00    -0.300 OA
ATOM     27  C   UNL     1     -23.651 -20.746   1.993  1.00  0.00     0.087 C 
ENDBRANCH  24  25
ENDBRANCH   1  24
TORSDOF 6
ENDMDL
MODEL 8
REMARK VINA RESULT:    -4.515      2.756      5.998
REMARK INTER + INTRA:          -7.154
REMARK INTER:                  -5.906
REMARK INTRA:                  -1.248
REMARK UNBOUND:                -1.187
REMARK SMILES CC(=O)C[C@H](c1ccc([N+](=O)[O-])cc1)c1c(O)c(=O)oc2ccccc12
REMARK SMILES IDX 5 1 6 2 7 3 8 4 9 5 14 6 13 7 10 8 11 9 12 10 15 11 16 12
REMARK SMILES IDX 26 13 18 14 25 15 21 16 19 17 20 18 24 19 22 20 23 21 17 22
REMARK SMILES IDX 4 24 2 25 3 26 1 27
REMARK H PARENT 17 23
ROOT
ATOM      1  C   UNL     1     -22.935 -26.804  -1.103  1.00  0.00     0.061 C 
ENDROOT
BRANCH   1   2
ATOM      2  C   UNL     1     -22.654 -26.743  -2.611  1.00  0.00    -0.039 A 
ATOM      3  C   UNL     1     -21.551 -27.433  -3.145  1.00  0.00     0.011 A 
ATOM      4  C   UNL     1     -21.267 -27.384  -4.512  1.00  0.00     0.086 A 
ATOM      5  C   UNL     1     -22.086 -26.631  -5.359  1.00  0.00     0.269 A 
ATOM      6  C   UNL     1     -23.455 -25.979  -3.477  1.00  0.00     0.011 A 
ATOM      7  C   UNL     1     -23.180 -25.925  -4.846  1.00  0.00     0.086 A 
BRANCH   5   8
ATOM      8  N   UNL     1     -21.794 -26.576  -6.797  1.00  0.00     0.062 N 
ATOM      9  O   UNL     1     -21.704 -27.650  -7.409  1.00  0.00    -0.258 OA
ATOM     10  O   UNL     1     -21.657 -25.458  -7.316  1.00  0.00    -0.258 OA
ENDBRANCH   5   8
ENDBRANCH   1   2
BRANCH   1  11
ATOM     11  C   UNL     1     -23.268 -28.238  -0.639  1.00  0.00     0.020 A 
ATOM     12  C   UNL     1     -24.428 -28.872  -0.903  1.00  0.00     0.206 A 
ATOM     13  C   UNL     1     -22.264 -28.982   0.169  1.00  0.00     0.025 A 
ATOM     14  C   UNL     1     -24.732 -30.243  -0.418  1.00  0.00     0.379 A 
ATOM     15  C   UNL     1     -20.997 -28.483   0.512  1.00  0.00     0.012 A 
ATOM     16  C   UNL     1     -22.570 -30.267   0.628  1.00  0.00     0.139 A 
ATOM     17  O   UNL     1     -25.815 -30.745  -0.717  1.00  0.00    -0.242 OA
ATOM     18  O   UNL     1     -23.796 -30.888   0.347  1.00  0.00    -0.420 OA
ATOM     19  C   UNL     1     -20.094 -29.233   1.278  1.00  0.00     0.001 A 
ATOM     20  C   UNL     1     -21.681 -31.028   1.395  1.00  0.00     0.048 A 
ATOM     21  C   UNL     1     -20.437 -30.505   1.721  1.00  0.00     0.004 A 
BRANCH  12  22
ATOM     22  O   UNL     1     -25.423 -28.291  -1.680  1.00  0.00    -0.502 OA
ATOM     23  H   UNL     1     -25.990 -29.040  -1.975  1.00  0.00     0.293 HD
ENDBRANCH  12  22
ENDBRANCH   1  11
BRANCH   1  24
ATOM     24  C   UNL     1     -23.952 -25.704  -0.718  1.00  0.00     0.088 C 
BRANCH  24  25
ATOM     25  C   UNL     1     -23.948 -25.396   0.770  1.00  0.00     0.130 C 
ATOM     26  O   UNL     1     -24.981 -25.338   1.438  1.00  0.00    -0.300 OA
ATOM     27  C   UNL     1     -22.608 -25.094   1.388  1.00  0.00     0.087 C 
ENDBRANCH  24  25
ENDBRANCH   1  24
TORSDOF 6
ENDMDL
MODEL 9
REMARK VINA RESULT:    -4.512      2.801      5.638
REMARK INTER + INTRA:          -7.149
REMARK INTER:                  -6.058
REMARK INTRA:                  -1.091
REMARK UNBOUND:                -1.187
REMARK SMILES CC(=O)C[C@H](c1ccc([N+](=O)[O-])cc1)c1c(O)c(=O)oc2ccccc12
REMARK SMILES IDX 5 1 6 2 7 3 8 4 9 5 14 6 13 7 10 8 11 9 12 10 15 11 16 12
REMARK SMILES IDX 26 13 18 14 25 15 21 16 19 17 20 18 24 19 22 20 23 21 17 22
REMARK SMILES IDX 4 24 2 25 3 26 1 27
REMARK H PARENT 17 23
ROOT
ATOM      1  C   UNL     1     -23.242 -27.505  -1.487  1.00  0.00     0.061 C 
ENDROOT
BRANCH   1   2
ATOM      2  C   UNL     1     -23.019 -27.206  -2.976  1.00  0.00    -0.039 A 
ATOM      3  C   UNL     1     -23.332 -25.934  -3.488  1.00  0.00     0.011 A 
ATOM      4  C   UNL     1     -23.148 -25.640  -4.842  1.00  0.00     0.086 A 
ATOM      5  C   UNL     1     -22.654 -26.627  -5.700  1.00  0.00     0.269 A 
ATOM      6  C   UNL     1     -22.538 -28.189  -3.858  1.00  0.00     0.011 A 
ATOM      7  C   UNL     1     -22.350 -27.904  -5.213  1.00  0.00     0.086 A 
BRANCH   5   8
ATOM      8  N   UNL     1     -22.458 -26.325  -7.123  1.00  0.00     0.062 N 
ATOM      9  O   UNL     1     -23.240 -26.839  -7.935  1.00  0.00    -0.258 OA
ATOM     10  O   UNL     1     -21.522 -25.572  -7.430  1.00  0.00    -0.258 OA
ENDBRANCH   5   8
ENDBRANCH   1   2
BRANCH   1  11
ATOM     11  C   UNL     1     -22.476 -26.517  -0.581  1.00  0.00     0.020 A 
ATOM     12  C   UNL     1     -21.140 -26.341  -0.608  1.00  0.00     0.206 A 
ATOM     13  C   UNL     1     -23.242 -25.707   0.406  1.00  0.00     0.025 A 
ATOM     14  C   UNL     1     -20.427 -25.403   0.297  1.00  0.00     0.379 A 
ATOM     15  C   UNL     1     -24.638 -25.746   0.548  1.00  0.00     0.012 A 
ATOM     16  C   UNL     1     -22.555 -24.836   1.258  1.00  0.00     0.139 A 
ATOM     17  O   UNL     1     -19.205 -25.302   0.194  1.00  0.00    -0.242 OA
ATOM     18  O   UNL     1     -21.160 -24.693   1.212  1.00  0.00    -0.420 OA
ATOM     19  C   UNL     1     -25.302 -24.958   1.498  1.00  0.00     0.001 A 
ATOM     20  C   UNL     1     -23.202 -24.045   2.213  1.00  0.00     0.048 A 
ATOM     21  C   UNL     1     -24.584 -24.108   2.332  1.00  0.00     0.004 A 
BRANCH  12  22
ATOM     22  O   UNL     1     -20.327 -27.014  -1.513  1.00  0.00    -0.502 OA
ATOM     23  H   UNL     1     -20.043 -27.832  -1.046  1.00  0.00     0.293 HD
ENDBRANCH  12  22
ENDBRANCH   1  11
BRANCH   1  24
ATOM     24  C   UNL     1     -23.005 -29.010  -1.217  1.00  0.00     0.088 C 
BRANCH  24  25
ATOM     25  C   UNL     1     -24.023 -29.601  -0.256  1.00  0.00     0.130 C 
ATOM     26  O   UNL     1     -25.106 -30.052  -0.632  1.00  0.00    -0.300 OA
ATOM     27  C   UNL     1     -23.673 -29.548   1.207  1.00  0.00     0.087 C 
ENDBRANCH  24  25
ENDBRANCH   1  24
TORSDOF 6
ENDMDL
MODEL 10
REMARK VINA RESULT:    -4.509      4.176      7.965
REMARK INTER + INTRA:          -7.146
REMARK INTER:                  -6.248
REMARK INTRA:                  -0.898
REMARK UNBOUND:                -1.187
REMARK SMILES CC(=O)C[C@H](c1ccc([N+](=O)[O-])cc1)c1c(O)c(=O)oc2ccccc12
REMARK SMILES IDX 5 1 6 2 7 3 8 4 9 5 14 6 13 7 10 8 11 9 12 10 15 11 16 12
REMARK SMILES IDX 26 13 18 14 25 15 21 16 19 17 20 18 24 19 22 20 23 21 17 22
REMARK SMILES IDX 4 24 2 25 3 26 1 27
REMARK H PARENT 17 23
ROOT
ATOM      1  C   UNL     1     -21.995 -26.146  -6.379  1.00  0.00     0.061 C 
ENDROOT
BRANCH   1   2
ATOM      2  C   UNL     1     -22.537 -26.645  -5.033  1.00  0.00    -0.039 A 
ATOM      3  C   UNL     1     -23.287 -25.779  -4.217  1.00  0.00     0.011 A 
ATOM      4  C   UNL     1     -23.782 -26.206  -2.982  1.00  0.00     0.086 A 
ATOM      5  C   UNL     1     -23.519 -27.509  -2.547  1.00  0.00     0.269 A 
ATOM      6  C   UNL     1     -22.271 -27.945  -4.571  1.00  0.00     0.011 A 
ATOM      7  C   UNL     1     -22.762 -28.382  -3.338  1.00  0.00     0.086 A 
BRANCH   5   8
ATOM      8  N   UNL     1     -24.037 -27.964  -1.251  1.00  0.00     0.062 N 
ATOM      9  O   UNL     1     -23.539 -27.474  -0.227  1.00  0.00    -0.258 OA
ATOM     10  O   UNL     1     -24.943 -28.810  -1.256  1.00  0.00    -0.258 OA
ENDBRANCH   5   8
ENDBRANCH   1   2
BRANCH   1  11
ATOM     11  C   UNL     1     -23.127 -25.661  -7.309  1.00  0.00     0.020 A 
ATOM     12  C   UNL     1     -23.278 -24.386  -7.722  1.00  0.00     0.206 A 
ATOM     13  C   UNL     1     -24.141 -26.644  -7.780  1.00  0.00     0.025 A 
ATOM     14  C   UNL     1     -24.396 -23.943  -8.594  1.00  0.00     0.379 A 
ATOM     15  C   UNL     1     -24.120 -28.013  -7.467  1.00  0.00     0.012 A 
ATOM     16  C   UNL     1     -25.194 -26.209  -8.591  1.00  0.00     0.139 A 
ATOM     17  O   UNL     1     -24.447 -22.760  -8.929  1.00  0.00    -0.242 OA
ATOM     18  O   UNL     1     -25.327 -24.870  -8.986  1.00  0.00    -0.420 OA
ATOM     19  C   UNL     1     -25.105 -28.890  -7.940  1.00  0.00     0.001 A 
ATOM     20  C   UNL     1     -26.186 -27.071  -9.070  1.00  0.00     0.048 A 
ATOM     21  C   UNL     1     -26.140 -28.419  -8.741  1.00  0.00     0.004 A 
BRANCH  12  22
ATOM     22  O   UNL     1     -22.372 -23.390  -7.379  1.00  0.00    -0.502 OA
ATOM     23  H   UNL     1     -21.764 -23.807  -6.728  1.00  0.00     0.293 HD
ENDBRANCH  12  22
ENDBRANCH   1  11
BRANCH   1  24
ATOM     24  C   UNL     1     -21.023 -27.194  -6.970  1.00  0.00     0.088 C 
BRANCH  24  25
ATOM     25  C   UNL     1     -19.570 -26.752  -6.900  1.00  0.00     0.130 C 
ATOM     26  O   UNL     1     -19.057 -26.022  -7.750  1.00  0.00    -0.300 OA
ATOM     27  C   UNL     1     -18.754 -27.309  -5.765  1.00  0.00     0.087 C 
ENDBRANCH  24  25
ENDBRANCH   1  24
TORSDOF 6
ENDMDL
MODEL 11
REMARK VINA RESULT:    -4.472      3.392      7.053
REMARK INTER + INTRA:          -7.096
REMARK INTER:                  -5.862
REMARK INTRA:                  -1.234
REMARK UNBOUND:                -1.187
REMARK SMILES CC(=O)C[C@H](c1ccc([N+](=O)[O-])cc1)c1c(O)c(=O)oc2ccccc12
REMARK SMILES IDX 5 1 6 2 7 3 8 4 9 5 14 6 13 7 10 8 11 9 12 10 15 11 16 12
REMARK SMILES IDX 26 13 18 14 25 15 21 16 19 17 20 18 24 19 22 20 23 21 17 22
REMARK SMILES IDX 4 24 2 25 3 26 1 27
REMARK H PARENT 17 23
ROOT
ATOM      1  C   UNL     1     -23.243 -27.693  -4.479  1.00  0.00     0.061 C 
ENDROOT
BRANCH   1   2
ATOM      2  C   UNL     1     -23.025 -26.998  -3.129  1.00  0.00    -0.039 A 
ATOM      3  C   UNL     1     -24.133 -26.591  -2.364  1.00  0.00     0.011 A 
ATOM      4  C   UNL     1     -23.960 -25.946  -1.137  1.00  0.00     0.086 A 
ATOM      5  C   UNL     1     -22.668 -25.694  -0.667  1.00  0.00     0.269 A 
ATOM      6  C   UNL     1     -21.734 -26.720  -2.646  1.00  0.00     0.011 A 
ATOM      7  C   UNL     1     -21.551 -26.077  -1.419  1.00  0.00     0.086 A 
BRANCH   5   8
ATOM      8  N   UNL     1     -22.479 -25.017   0.622  1.00  0.00     0.062 N 
ATOM      9  O   UNL     1     -21.338 -25.003   1.105  1.00  0.00    -0.258 OA
ATOM     10  O   UNL     1     -23.472 -24.496   1.152  1.00  0.00    -0.258 OA
ENDBRANCH   5   8
ENDBRANCH   1   2
BRANCH   1  11
ATOM     11  C   UNL     1     -22.508 -26.965  -5.625  1.00  0.00     0.020 A 
ATOM     12  C   UNL     1     -22.865 -25.758  -6.110  1.00  0.00     0.206 A 
ATOM     13  C   UNL     1     -21.338 -27.627  -6.263  1.00  0.00     0.025 A 
ATOM     14  C   UNL     1     -22.155 -25.094  -7.234  1.00  0.00     0.379 A 
ATOM     15  C   UNL     1     -20.819 -28.870  -5.866  1.00  0.00     0.012 A 
ATOM     16  C   UNL     1     -20.688 -26.995  -7.328  1.00  0.00     0.139 A 
ATOM     17  O   UNL     1     -22.546 -23.987  -7.603  1.00  0.00    -0.242 OA
ATOM     18  O   UNL     1     -21.098 -25.745  -7.816  1.00  0.00    -0.420 OA
ATOM     19  C   UNL     1     -19.713 -29.443  -6.508  1.00  0.00     0.001 A 
ATOM     20  C   UNL     1     -19.584 -27.554  -7.981  1.00  0.00     0.048 A 
ATOM     21  C   UNL     1     -19.096 -28.786  -7.567  1.00  0.00     0.004 A 
BRANCH  12  22
ATOM     22  O   UNL     1     -23.916 -25.029  -5.568  1.00  0.00    -0.502 OA
ATOM     23  H   UNL     1     -23.960 -24.204  -6.103  1.00  0.00     0.293 HD
ENDBRANCH  12  22
ENDBRANCH   1  11
BRANCH   1  24
ATOM     24  C   UNL     1     -24.752 -27.959  -4.690  1.00  0.00     0.088 C 
BRANCH  24  25
ATOM     25  C   UNL     1     -25.108 -29.433  -4.587  1.00  0.00     0.130 C 
ATOM     26  O   UNL     1     -26.056 -29.841  -3.915  1.00  0.00    -0.300 OA
ATOM     27  C   UNL     1     -24.195 -30.394  -5.301  1.00  0.00     0.087 C 
ENDBRANCH  24  25
ENDBRANCH   1  24
TORSDOF 6
ENDMDL
MODEL 12
REMARK VINA RESULT:    -4.461      3.947      6.675
REMARK INTER + INTRA:          -7.083
REMARK INTER:                  -6.054
REMARK INTRA:                  -1.028
REMARK UNBOUND:                -1.187
REMARK SMILES CC(=O)C[C@H](c1ccc([N+](=O)[O-])cc1)c1c(O)c(=O)oc2ccccc12
REMARK SMILES IDX 5 1 6 2 7 3 8 4 9 5 14 6 13 7 10 8 11 9 12 10 15 11 16 12
REMARK SMILES IDX 26 13 18 14 25 15 21 16 19 17 20 18 24 19 22 20 23 21 17 22
REMARK SMILES IDX 4 24 2 25 3 26 1 27
REMARK H PARENT 17 23
ROOT
ATOM      1  C   UNL     1     -24.979 -23.946   2.584  1.00  0.00     0.061 C 
ENDROOT
BRANCH   1   2
ATOM      2  C   UNL     1     -26.507 -23.933   2.722  1.00  0.00    -0.039 A 
ATOM      3  C   UNL     1     -27.311 -24.327   1.637  1.00  0.00     0.011 A 
ATOM      4  C   UNL     1     -28.705 -24.312   1.735  1.00  0.00     0.086 A 
ATOM      5  C   UNL     1     -29.308 -23.892   2.924  1.00  0.00     0.269 A 
ATOM      6  C   UNL     1     -27.133 -23.499   3.903  1.00  0.00     0.011 A 
ATOM      7  C   UNL     1     -28.527 -23.482   4.010  1.00  0.00     0.086 A 
BRANCH   5   8
ATOM      8  N   UNL     1     -30.772 -23.876   3.033  1.00  0.00     0.062 N 
ATOM      9  O   UNL     1     -31.287 -23.015   3.760  1.00  0.00    -0.258 OA
ATOM     10  O   UNL     1     -31.409 -24.723   2.389  1.00  0.00    -0.258 OA
ENDBRANCH   5   8
ENDBRANCH   1   2
BRANCH   1  11
ATOM     11  C   UNL     1     -24.395 -25.360   2.797  1.00  0.00     0.020 A 
ATOM     12  C   UNL     1     -24.148 -25.906   4.005  1.00  0.00     0.206 A 
ATOM     13  C   UNL     1     -24.060 -26.186   1.605  1.00  0.00     0.025 A 
ATOM     14  C   UNL     1     -23.559 -27.258   4.178  1.00  0.00     0.379 A 
ATOM     15  C   UNL     1     -24.277 -25.782   0.277  1.00  0.00     0.012 A 
ATOM     16  C   UNL     1     -23.495 -27.452   1.784  1.00  0.00     0.139 A 
ATOM     17  O   UNL     1     -23.377 -27.678   5.320  1.00  0.00    -0.242 OA
ATOM     18  O   UNL     1     -23.237 -27.980   3.058  1.00  0.00    -0.420 OA
ATOM     19  C   UNL     1     -23.939 -26.606  -0.805  1.00  0.00     0.001 A 
ATOM     20  C   UNL     1     -23.151 -28.285   0.715  1.00  0.00     0.048 A 
ATOM     21  C   UNL     1     -23.374 -27.857  -0.587  1.00  0.00     0.004 A 
BRANCH  12  22
ATOM     22  O   UNL     1     -24.456 -25.245   5.188  1.00  0.00    -0.502 OA
ATOM     23  H   UNL     1     -25.248 -24.699   4.980  1.00  0.00     0.293 HD
ENDBRANCH  12  22
ENDBRANCH   1  11
BRANCH   1  24
ATOM     24  C   UNL     1     -24.368 -22.815   3.443  1.00  0.00     0.088 C 
BRANCH  24  25
ATOM     25  C   UNL     1     -23.850 -21.656   2.606  1.00  0.00     0.130 C 
ATOM     26  O   UNL     1     -22.666 -21.547   2.286  1.00  0.00    -0.300 OA
ATOM     27  C   UNL     1     -24.853 -20.596   2.237  1.00  0.00     0.087 C 
ENDBRANCH  24  25
ENDBRANCH   1  24
TORSDOF 6
ENDMDL
MODEL 13
REMARK VINA RESULT:    -4.458      4.648      7.968
REMARK INTER + INTRA:          -7.078
REMARK INTER:                  -6.071
REMARK INTRA:                  -1.007
REMARK UNBOUND:                -1.187
REMARK SMILES CC(=O)C[C@H](c1ccc([N+](=O)[O-])cc1)c1c(O)c(=O)oc2ccccc12
REMARK SMILES IDX 5 1 6 2 7 3 8 4 9 5 14 6 13 7 10 8 11 9 12 10 15 11 16 12
REMARK SMILES IDX 26 13 18 14 25 15 21 16 19 17 20 18 24 19 22 20 23 21 17 22
REMARK SMILES IDX 4 24 2 25 3 26 1 27
REMARK H PARENT 17 23
ROOT
ATOM      1  C   UNL     1     -23.955 -27.139  -5.382  1.00  0.00     0.061 C 
ENDROOT
BRANCH   1   2
ATOM      2  C   UNL     1     -23.716 -26.293  -6.640  1.00  0.00    -0.039 A 
ATOM      3  C   UNL     1     -24.022 -26.821  -7.906  1.00  0.00     0.011 A 
ATOM      4  C   UNL     1     -23.803 -26.075  -9.068  1.00  0.00     0.086 A 
ATOM      5  C   UNL     1     -23.262 -24.789  -8.969  1.00  0.00     0.269 A 
ATOM      6  C   UNL     1     -23.158 -25.005  -6.563  1.00  0.00     0.011 A 
ATOM      7  C   UNL     1     -22.936 -24.251  -7.719  1.00  0.00     0.086 A 
BRANCH   5   8
ATOM      8  N   UNL     1     -23.029 -24.000 -10.185  1.00  0.00     0.062 N 
ATOM      9  O   UNL     1     -24.009 -23.462 -10.719  1.00  0.00    -0.258 OA
ATOM     10  O   UNL     1     -21.866 -23.915 -10.604  1.00  0.00    -0.258 OA
ENDBRANCH   5   8
ENDBRANCH   1   2
BRANCH   1  11
ATOM     11  C   UNL     1     -22.698 -27.207  -4.488  1.00  0.00     0.020 A 
ATOM     12  C   UNL     1     -21.507 -27.695  -4.889  1.00  0.00     0.206 A 
ATOM     13  C   UNL     1     -22.788 -26.724  -3.083  1.00  0.00     0.025 A 
ATOM     14  C   UNL     1     -20.322 -27.775  -3.997  1.00  0.00     0.379 A 
ATOM     15  C   UNL     1     -23.942 -26.163  -2.513  1.00  0.00     0.012 A 
ATOM     16  C   UNL     1     -21.667 -26.816  -2.253  1.00  0.00     0.139 A 
ATOM     17  O   UNL     1     -19.272 -28.227  -4.453  1.00  0.00    -0.242 OA
ATOM     18  O   UNL     1     -20.448 -27.347  -2.701  1.00  0.00    -0.420 OA
ATOM     19  C   UNL     1     -23.966 -25.726  -1.181  1.00  0.00     0.001 A 
ATOM     20  C   UNL     1     -21.674 -26.387  -0.921  1.00  0.00     0.048 A 
ATOM     21  C   UNL     1     -22.832 -25.840  -0.385  1.00  0.00     0.004 A 
BRANCH  12  22
ATOM     22  O   UNL     1     -21.293 -28.138  -6.189  1.00  0.00    -0.502 OA
ATOM     23  H   UNL     1     -20.380 -28.506  -6.189  1.00  0.00     0.293 HD
ENDBRANCH  12  22
ENDBRANCH   1  11
BRANCH   1  24
ATOM     24  C   UNL     1     -24.591 -28.492  -5.777  1.00  0.00     0.088 C 
BRANCH  24  25
ATOM     25  C   UNL     1     -25.953 -28.709  -5.139  1.00  0.00     0.130 C 
ATOM     26  O   UNL     1     -26.184 -28.437  -3.959  1.00  0.00    -0.300 OA
ATOM     27  C   UNL     1     -27.006 -29.345  -6.006  1.00  0.00     0.087 C 
ENDBRANCH  24  25
ENDBRANCH   1  24
TORSDOF 6
ENDMDL
MODEL 14
REMARK VINA RESULT:    -4.382     10.065     11.852
REMARK INTER + INTRA:          -6.978
REMARK INTER:                  -6.017
REMARK INTRA:                  -0.961
REMARK UNBOUND:                -1.187
REMARK SMILES CC(=O)C[C@H](c1ccc([N+](=O)[O-])cc1)c1c(O)c(=O)oc2ccccc12
REMARK SMILES IDX 5 1 6 2 7 3 8 4 9 5 14 6 13 7 10 8 11 9 12 10 15 11 16 12
REMARK SMILES IDX 26 13 18 14 25 15 21 16 19 17 20 18 24 19 22 20 23 21 17 22
REMARK SMILES IDX 4 24 2 25 3 26 1 27
REMARK H PARENT 17 23
ROOT
ATOM      1  C   UNL     1     -29.728 -19.148  -6.003  1.00  0.00     0.061 C 
ENDROOT
BRANCH   1   2
ATOM      2  C   UNL     1     -28.521 -19.629  -6.821  1.00  0.00    -0.039 A 
ATOM      3  C   UNL     1     -27.926 -18.768  -7.760  1.00  0.00     0.011 A 
ATOM      4  C   UNL     1     -26.834 -19.187  -8.526  1.00  0.00     0.086 A 
ATOM      5  C   UNL     1     -26.332 -20.482  -8.360  1.00  0.00     0.269 A 
ATOM      6  C   UNL     1     -28.013 -20.932  -6.682  1.00  0.00     0.011 A 
ATOM      7  C   UNL     1     -26.920 -21.359  -7.441  1.00  0.00     0.086 A 
BRANCH   5   8
ATOM      8  N   UNL     1     -25.185 -20.928  -9.160  1.00  0.00     0.062 N 
ATOM      9  O   UNL     1     -25.071 -20.475 -10.308  1.00  0.00    -0.258 OA
ATOM     10  O   UNL     1     -24.395 -21.729  -8.640  1.00  0.00    -0.258 OA
ENDBRANCH   5   8
ENDBRANCH   1   2
BRANCH   1  11
ATOM     11  C   UNL     1     -29.334 -18.796  -4.552  1.00  0.00     0.020 A 
ATOM     12  C   UNL     1     -29.354 -19.671  -3.526  1.00  0.00     0.206 A 
ATOM     13  C   UNL     1     -28.919 -17.402  -4.238  1.00  0.00     0.025 A 
ATOM     14  C   UNL     1     -28.997 -19.297  -2.134  1.00  0.00     0.379 A 
ATOM     15  C   UNL     1     -28.818 -16.374  -5.190  1.00  0.00     0.012 A 
ATOM     16  C   UNL     1     -28.597 -17.062  -2.921  1.00  0.00     0.139 A 
ATOM     17  O   UNL     1     -29.035 -20.166  -1.263  1.00  0.00    -0.242 OA
ATOM     18  O   UNL     1     -28.646 -17.997  -1.876  1.00  0.00    -0.420 OA
ATOM     19  C   UNL     1     -28.422 -15.078  -4.831  1.00  0.00     0.001 A 
ATOM     20  C   UNL     1     -28.202 -15.773  -2.546  1.00  0.00     0.048 A 
ATOM     21  C   UNL     1     -28.115 -14.777  -3.509  1.00  0.00     0.004 A 
BRANCH  12  22
ATOM     22  O   UNL     1     -29.687 -21.008  -3.706  1.00  0.00    -0.502 OA
ATOM     23  H   UNL     1     -30.284 -21.023  -4.489  1.00  0.00     0.293 HD
ENDBRANCH  12  22
ENDBRANCH   1  11
BRANCH   1  24
ATOM     24  C   UNL     1     -30.902 -20.139  -6.175  1.00  0.00     0.088 C 
BRANCH  24  25
ATOM     25  C   UNL     1     -31.419 -20.194  -7.604  1.00  0.00     0.130 C 
ATOM     26  O   UNL     1     -31.897 -19.212  -8.174  1.00  0.00    -0.300 OA
ATOM     27  C   UNL     1     -31.383 -21.539  -8.279  1.00  0.00     0.087 C 
ENDBRANCH  24  25
ENDBRANCH   1  24
TORSDOF 6
ENDMDL
MODEL 15
REMARK VINA RESULT:    -4.358      4.004      7.654
REMARK INTER + INTRA:          -6.946
REMARK INTER:                  -5.810
REMARK INTRA:                  -1.136
REMARK UNBOUND:                -1.187
REMARK SMILES CC(=O)C[C@H](c1ccc([N+](=O)[O-])cc1)c1c(O)c(=O)oc2ccccc12
REMARK SMILES IDX 5 1 6 2 7 3 8 4 9 5 14 6 13 7 10 8 11 9 12 10 15 11 16 12
REMARK SMILES IDX 26 13 18 14 25 15 21 16 19 17 20 18 24 19 22 20 23 21 17 22
REMARK SMILES IDX 4 24 2 25 3 26 1 27
REMARK H PARENT 17 23
ROOT
ATOM      1  C   UNL     1     -24.672 -24.364   3.051  1.00  0.00     0.061 C 
ENDROOT
BRANCH   1   2
ATOM      2  C   UNL     1     -23.649 -23.250   2.790  1.00  0.00    -0.039 A 
ATOM      3  C   UNL     1     -22.281 -23.491   3.013  1.00  0.00     0.011 A 
ATOM      4  C   UNL     1     -21.332 -22.489   2.793  1.00  0.00     0.086 A 
ATOM      5  C   UNL     1     -21.749 -21.228   2.355  1.00  0.00     0.269 A 
ATOM      6  C   UNL     1     -24.049 -21.971   2.365  1.00  0.00     0.011 A 
ATOM      7  C   UNL     1     -23.107 -20.964   2.142  1.00  0.00     0.086 A 
BRANCH   5   8
ATOM      8  N   UNL     1     -20.756 -20.172   2.122  1.00  0.00     0.062 N 
ATOM      9  O   UNL     1     -19.737 -20.173   2.827  1.00  0.00    -0.258 OA
ATOM     10  O   UNL     1     -20.994 -19.342   1.232  1.00  0.00    -0.258 OA
ENDBRANCH   5   8
ENDBRANCH   1   2
BRANCH   1  11
ATOM     11  C   UNL     1     -24.129 -25.750   2.638  1.00  0.00     0.020 A 
ATOM     12  C   UNL     1     -24.019 -26.173   1.362  1.00  0.00     0.206 A 
ATOM     13  C   UNL     1     -23.712 -26.704   3.701  1.00  0.00     0.025 A 
ATOM     14  C   UNL     1     -23.520 -27.523   0.997  1.00  0.00     0.379 A 
ATOM     15  C   UNL     1     -23.737 -26.416   5.076  1.00  0.00     0.012 A 
ATOM     16  C   UNL     1     -23.256 -27.975   3.341  1.00  0.00     0.139 A 
ATOM     17  O   UNL     1     -23.444 -27.819  -0.196  1.00  0.00    -0.242 OA
ATOM     18  O   UNL     1     -23.170 -28.386   2.003  1.00  0.00    -0.420 OA
ATOM     19  C   UNL     1     -23.332 -27.359   6.031  1.00  0.00     0.001 A 
ATOM     20  C   UNL     1     -22.849 -28.928   4.282  1.00  0.00     0.048 A 
ATOM     21  C   UNL     1     -22.889 -28.615   5.634  1.00  0.00     0.004 A 
BRANCH  12  22
ATOM     22  O   UNL     1     -24.341 -25.356   0.286  1.00  0.00    -0.502 OA
ATOM     23  H   UNL     1     -25.316 -25.442   0.179  1.00  0.00     0.293 HD
ENDBRANCH  12  22
ENDBRANCH   1  11
BRANCH   1  24
ATOM     24  C   UNL     1     -26.044 -23.960   2.462  1.00  0.00     0.088 C 
BRANCH  24  25
ATOM     25  C   UNL     1     -27.074 -23.648   3.535  1.00  0.00     0.130 C 
ATOM     26  O   UNL     1     -28.226 -23.303   3.269  1.00  0.00    -0.300 OA
ATOM     27  C   UNL     1     -26.597 -23.716   4.962  1.00  0.00     0.087 C 
ENDBRANCH  24  25
ENDBRANCH   1  24
TORSDOF 6
ENDMDL
MODEL 16
REMARK VINA RESULT:    -4.356      4.898      8.059
REMARK INTER + INTRA:          -6.943
REMARK INTER:                  -6.369
REMARK INTRA:                  -0.575
REMARK UNBOUND:                -1.187
REMARK SMILES CC(=O)C[C@H](c1ccc([N+](=O)[O-])cc1)c1c(O)c(=O)oc2ccccc12
REMARK SMILES IDX 5 1 6 2 7 3 8 4 9 5 14 6 13 7 10 8 11 9 12 10 15 11 16 12
REMARK SMILES IDX 26 13 18 14 25 15 21 16 19 17 20 18 24 19 22 20 23 21 17 22
REMARK SMILES IDX 4 24 2 25 3 26 1 27
REMARK H PARENT 17 23
ROOT
ATOM      1  C   UNL     1     -26.469 -23.118   2.925  1.00  0.00     0.061 C 
ENDROOT
BRANCH   1   2
ATOM      2  C   UNL     1     -25.700 -21.872   2.466  1.00  0.00    -0.039 A 
ATOM      3  C   UNL     1     -26.404 -20.748   1.999  1.00  0.00     0.011 A 
ATOM      4  C   UNL     1     -25.726 -19.606   1.565  1.00  0.00     0.086 A 
ATOM      5  C   UNL     1     -24.328 -19.585   1.586  1.00  0.00     0.269 A 
ATOM      6  C   UNL     1     -24.295 -21.837   2.463  1.00  0.00     0.011 A 
ATOM      7  C   UNL     1     -23.608 -20.699   2.032  1.00  0.00     0.086 A 
BRANCH   5   8
ATOM      8  N   UNL     1     -23.610 -18.388   1.131  1.00  0.00     0.062 N 
ATOM      9  O   UNL     1     -22.394 -18.491   0.919  1.00  0.00    -0.258 OA
ATOM     10  O   UNL     1     -24.263 -17.344   0.983  1.00  0.00    -0.258 OA
ENDBRANCH   5   8
ENDBRANCH   1   2
BRANCH   1  11
ATOM     11  C   UNL     1     -25.539 -24.153   3.594  1.00  0.00     0.020 A 
ATOM     12  C   UNL     1     -25.307 -24.222   4.920  1.00  0.00     0.206 A 
ATOM     13  C   UNL     1     -24.826 -25.139   2.735  1.00  0.00     0.025 A 
ATOM     14  C   UNL     1     -24.384 -25.211   5.532  1.00  0.00     0.379 A 
ATOM     15  C   UNL     1     -24.972 -25.223   1.341  1.00  0.00     0.012 A 
ATOM     16  C   UNL     1     -23.951 -26.056   3.325  1.00  0.00     0.139 A 
ATOM     17  O   UNL     1     -24.242 -25.206   6.754  1.00  0.00    -0.242 OA
ATOM     18  O   UNL     1     -23.723 -26.086   4.708  1.00  0.00    -0.420 OA
ATOM     19  C   UNL     1     -24.272 -26.174   0.585  1.00  0.00     0.001 A 
ATOM     20  C   UNL     1     -23.244 -27.010   2.585  1.00  0.00     0.048 A 
ATOM     21  C   UNL     1     -23.406 -27.067   1.207  1.00  0.00     0.004 A 
BRANCH  12  22
ATOM     22  O   UNL     1     -25.946 -23.380   5.823  1.00  0.00    -0.502 OA
ATOM     23  H   UNL     1     -26.110 -22.547   5.326  1.00  0.00     0.293 HD
ENDBRANCH  12  22
ENDBRANCH   1  11
BRANCH   1  24
ATOM     24  C   UNL     1     -27.357 -23.638   1.770  1.00  0.00     0.088 C 
BRANCH  24  25
ATOM     25  C   UNL     1     -28.651 -24.267   2.261  1.00  0.00     0.130 C 
ATOM     26  O   UNL     1     -29.313 -25.046   1.574  1.00  0.00    -0.300 OA
ATOM     27  C   UNL     1     -29.131 -23.836   3.622  1.00  0.00     0.087 C 
ENDBRANCH  24  25
ENDBRANCH   1  24
TORSDOF 6
ENDMDL
MODEL 17
REMARK VINA RESULT:    -4.343      1.715      4.109
REMARK INTER + INTRA:          -6.927
REMARK INTER:                  -5.803
REMARK INTRA:                  -1.124
REMARK UNBOUND:                -1.187
REMARK SMILES CC(=O)C[C@H](c1ccc([N+](=O)[O-])cc1)c1c(O)c(=O)oc2ccccc12
REMARK SMILES IDX 5 1 6 2 7 3 8 4 9 5 14 6 13 7 10 8 11 9 12 10 15 11 16 12
REMARK SMILES IDX 26 13 18 14 25 15 21 16 19 17 20 18 24 19 22 20 23 21 17 22
REMARK SMILES IDX 4 24 2 25 3 26 1 27
REMARK H PARENT 17 23
ROOT
ATOM      1  C   UNL     1     -23.612 -27.442   0.158  1.00  0.00     0.061 C 
ENDROOT
BRANCH   1   2
ATOM      2  C   UNL     1     -23.969 -28.928   0.296  1.00  0.00    -0.039 A 
ATOM      3  C   UNL     1     -24.745 -29.555  -0.695  1.00  0.00     0.011 A 
ATOM      4  C   UNL     1     -25.093 -30.905  -0.587  1.00  0.00     0.086 A 
ATOM      5  C   UNL     1     -24.671 -31.638   0.526  1.00  0.00     0.269 A 
ATOM      6  C   UNL     1     -23.569 -29.678   1.415  1.00  0.00     0.011 A 
ATOM      7  C   UNL     1     -23.911 -31.028   1.531  1.00  0.00     0.086 A 
BRANCH   5   8
ATOM      8  N   UNL     1     -25.033 -33.056   0.646  1.00  0.00     0.062 N 
ATOM      9  O   UNL     1     -25.001 -33.747  -0.382  1.00  0.00    -0.258 OA
ATOM     10  O   UNL     1     -25.346 -33.479   1.768  1.00  0.00    -0.258 OA
ENDBRANCH   5   8
ENDBRANCH   1   2
BRANCH   1  11
ATOM     11  C   UNL     1     -22.976 -27.129  -1.214  1.00  0.00     0.020 A 
ATOM     12  C   UNL     1     -23.545 -26.351  -2.155  1.00  0.00     0.206 A 
ATOM     13  C   UNL     1     -21.655 -27.731  -1.546  1.00  0.00     0.025 A 
ATOM     14  C   UNL     1     -22.920 -26.091  -3.478  1.00  0.00     0.379 A 
ATOM     15  C   UNL     1     -20.914 -28.544  -0.673  1.00  0.00     0.012 A 
ATOM     16  C   UNL     1     -21.087 -27.487  -2.800  1.00  0.00     0.139 A 
ATOM     17  O   UNL     1     -23.509 -25.358  -4.272  1.00  0.00    -0.242 OA
ATOM     18  O   UNL     1     -21.717 -26.684  -3.762  1.00  0.00    -0.420 OA
ATOM     19  C   UNL     1     -19.675 -29.083  -1.045  1.00  0.00     0.001 A 
ATOM     20  C   UNL     1     -19.852 -28.019  -3.187  1.00  0.00     0.048 A 
ATOM     21  C   UNL     1     -19.144 -28.822  -2.303  1.00  0.00     0.004 A 
BRANCH  12  22
ATOM     22  O   UNL     1     -24.756 -25.705  -1.943  1.00  0.00    -0.502 OA
ATOM     23  H   UNL     1     -24.985 -25.293  -2.807  1.00  0.00     0.293 HD
ENDBRANCH  12  22
ENDBRANCH   1  11
BRANCH   1  24
ATOM     24  C   UNL     1     -22.821 -26.978   1.404  1.00  0.00     0.088 C 
BRANCH  24  25
ATOM     25  C   UNL     1     -22.523 -25.488   1.388  1.00  0.00     0.130 C 
ATOM     26  O   UNL     1     -23.409 -24.633   1.431  1.00  0.00    -0.300 OA
ATOM     27  C   UNL     1     -21.076 -25.096   1.248  1.00  0.00     0.087 C 
ENDBRANCH  24  25
ENDBRANCH   1  24
TORSDOF 6
ENDMDL
MODEL 18
REMARK VINA RESULT:    -4.312      3.767      7.585
REMARK INTER + INTRA:          -6.885
REMARK INTER:                  -5.910
REMARK INTRA:                  -0.976
REMARK UNBOUND:                -1.187
REMARK SMILES CC(=O)C[C@H](c1ccc([N+](=O)[O-])cc1)c1c(O)c(=O)oc2ccccc12
REMARK SMILES IDX 5 1 6 2 7 3 8 4 9 5 14 6 13 7 10 8 11 9 12 10 15 11 16 12
REMARK SMILES IDX 26 13 18 14 25 15 21 16 19 17 20 18 24 19 22 20 23 21 17 22
REMARK SMILES IDX 4 24 2 25 3 26 1 27
REMARK H PARENT 17 23
ROOT
ATOM      1  C   UNL     1     -21.910 -26.792  -5.053  1.00  0.00     0.061 C 
ENDROOT
BRANCH   1   2
ATOM      2  C   UNL     1     -22.339 -26.500  -3.609  1.00  0.00    -0.039 A 
ATOM      3  C   UNL     1     -23.691 -26.243  -3.319  1.00  0.00     0.011 A 
ATOM      4  C   UNL     1     -24.104 -25.963  -2.014  1.00  0.00     0.086 A 
ATOM      5  C   UNL     1     -23.159 -25.929  -0.984  1.00  0.00     0.269 A 
ATOM      6  C   UNL     1     -21.402 -26.445  -2.562  1.00  0.00     0.011 A 
ATOM      7  C   UNL     1     -21.806 -26.167  -1.254  1.00  0.00     0.086 A 
BRANCH   5   8
ATOM      8  N   UNL     1     -23.587 -25.636   0.390  1.00  0.00     0.062 N 
ATOM      9  O   UNL     1     -24.804 -25.585   0.616  1.00  0.00    -0.258 OA
ATOM     10  O   UNL     1     -22.705 -25.459   1.243  1.00  0.00    -0.258 OA
ENDBRANCH   5   8
ENDBRANCH   1   2
BRANCH   1  11
ATOM     11  C   UNL     1     -22.985 -27.593  -5.820  1.00  0.00     0.020 A 
ATOM     12  C   UNL     1     -23.270 -28.891  -5.594  1.00  0.00     0.206 A 
ATOM     13  C   UNL     1     -23.757 -26.913  -6.895  1.00  0.00     0.025 A 
ATOM     14  C   UNL     1     -24.291 -29.644  -6.367  1.00  0.00     0.379 A 
ATOM     15  C   UNL     1     -23.605 -25.561  -7.243  1.00  0.00     0.012 A 
ATOM     16  C   UNL     1     -24.706 -27.638  -7.623  1.00  0.00     0.139 A 
ATOM     17  O   UNL     1     -24.490 -30.825  -6.083  1.00  0.00    -0.242 OA
ATOM     18  O   UNL     1     -24.964 -28.994  -7.369  1.00  0.00    -0.420 OA
ATOM     19  C   UNL     1     -24.362 -24.976  -8.268  1.00  0.00     0.001 A 
ATOM     20  C   UNL     1     -25.468 -27.071  -8.649  1.00  0.00     0.048 A 
ATOM     21  C   UNL     1     -25.293 -25.732  -8.972  1.00  0.00     0.004 A 
BRANCH  12  22
ATOM     22  O   UNL     1     -22.642 -29.619  -4.590  1.00  0.00    -0.502 OA
ATOM     23  H   UNL     1     -21.679 -29.540  -4.778  1.00  0.00     0.293 HD
ENDBRANCH  12  22
ENDBRANCH   1  11
BRANCH   1  24
ATOM     24  C   UNL     1     -20.479 -27.379  -5.064  1.00  0.00     0.088 C 
BRANCH  24  25
ATOM     25  C   UNL     1     -19.623 -26.817  -6.187  1.00  0.00     0.130 C 
ATOM     26  O   UNL     1     -20.095 -26.153  -7.112  1.00  0.00    -0.300 OA
ATOM     27  C   UNL     1     -18.160 -27.170  -6.156  1.00  0.00     0.087 C 
ENDBRANCH  24  25
ENDBRANCH   1  24
TORSDOF 6
ENDMDL
MODEL 19
REMARK VINA RESULT:    -4.300      3.045      4.052
REMARK INTER + INTRA:          -6.870
REMARK INTER:                  -5.819
REMARK INTRA:                  -1.051
REMARK UNBOUND:                -1.187
REMARK SMILES CC(=O)C[C@H](c1ccc([N+](=O)[O-])cc1)c1c(O)c(=O)oc2ccccc12
REMARK SMILES IDX 5 1 6 2 7 3 8 4 9 5 14 6 13 7 10 8 11 9 12 10 15 11 16 12
REMARK SMILES IDX 26 13 18 14 25 15 21 16 19 17 20 18 24 19 22 20 23 21 17 22
REMARK SMILES IDX 4 24 2 25 3 26 1 27
REMARK H PARENT 17 23
ROOT
ATOM      1  C   UNL     1     -22.988 -26.995  -4.353  1.00  0.00     0.061 C 
ENDROOT
BRANCH   1   2
ATOM      2  C   UNL     1     -24.100 -28.053  -4.365  1.00  0.00    -0.039 A 
ATOM      3  C   UNL     1     -24.166 -29.008  -3.335  1.00  0.00     0.011 A 
ATOM      4  C   UNL     1     -25.162 -29.989  -3.330  1.00  0.00     0.086 A 
ATOM      5  C   UNL     1     -26.099 -30.025  -4.367  1.00  0.00     0.269 A 
ATOM      6  C   UNL     1     -25.041 -28.116  -5.406  1.00  0.00     0.011 A 
ATOM      7  C   UNL     1     -26.041 -29.092  -5.409  1.00  0.00     0.086 A 
BRANCH   5   8
ATOM      8  N   UNL     1     -27.148 -31.052  -4.367  1.00  0.00     0.062 N 
ATOM      9  O   UNL     1     -28.323 -30.676  -4.252  1.00  0.00    -0.258 OA
ATOM     10  O   UNL     1     -26.798 -32.236  -4.484  1.00  0.00    -0.258 OA
ENDBRANCH   5   8
ENDBRANCH   1   2
BRANCH   1  11
ATOM     11  C   UNL     1     -22.475 -26.717  -2.923  1.00  0.00     0.020 A 
ATOM     12  C   UNL     1     -23.178 -26.061  -1.978  1.00  0.00     0.206 A 
ATOM     13  C   UNL     1     -21.111 -27.179  -2.547  1.00  0.00     0.025 A 
ATOM     14  C   UNL     1     -22.647 -25.783  -0.619  1.00  0.00     0.379 A 
ATOM     15  C   UNL     1     -20.256 -27.897  -3.399  1.00  0.00     0.012 A 
ATOM     16  C   UNL     1     -20.621 -26.899  -1.268  1.00  0.00     0.139 A 
ATOM     17  O   UNL     1     -23.365 -25.186   0.182  1.00  0.00    -0.242 OA
ATOM     18  O   UNL     1     -21.376 -26.199  -0.315  1.00  0.00    -0.420 OA
ATOM     19  C   UNL     1     -18.980 -28.304  -2.987  1.00  0.00     0.001 A 
ATOM     20  C   UNL     1     -19.349 -27.297  -0.841  1.00  0.00     0.048 A 
ATOM     21  C   UNL     1     -18.526 -28.003  -1.708  1.00  0.00     0.004 A 
BRANCH  12  22
ATOM     22  O   UNL     1     -24.476 -25.618  -2.201  1.00  0.00    -0.502 OA
ATOM     23  H   UNL     1     -25.006 -25.984  -1.457  1.00  0.00     0.293 HD
ENDBRANCH  12  22
ENDBRANCH   1  11
BRANCH   1  24
ATOM     24  C   UNL     1     -23.433 -25.762  -5.174  1.00  0.00     0.088 C 
BRANCH  24  25
ATOM     25  C   UNL     1     -22.630 -25.589  -6.454  1.00  0.00     0.130 C 
ATOM     26  O   UNL     1     -22.904 -24.735  -7.298  1.00  0.00    -0.300 OA
ATOM     27  C   UNL     1     -21.509 -26.568  -6.679  1.00  0.00     0.087 C 
ENDBRANCH  24  25
ENDBRANCH   1  24
TORSDOF 6
ENDMDL
MODEL 20
REMARK VINA RESULT:    -4.264      2.813      6.460
REMARK INTER + INTRA:          -6.822
REMARK INTER:                  -5.675
REMARK INTRA:                  -1.146
REMARK UNBOUND:                -1.187
REMARK SMILES CC(=O)C[C@H](c1ccc([N+](=O)[O-])cc1)c1c(O)c(=O)oc2ccccc12
REMARK SMILES IDX 5 1 6 2 7 3 8 4 9 5 14 6 13 7 10 8 11 9 12 10 15 11 16 12
REMARK SMILES IDX 26 13 18 14 25 15 21 16 19 17 20 18 24 19 22 20 23 21 17 22
REMARK SMILES IDX 4 24 2 25 3 26 1 27
REMARK H PARENT 17 23
ROOT
ATOM      1  C   UNL     1     -23.380 -27.866  -0.128  1.00  0.00     0.061 C 
ENDROOT
BRANCH   1   2
ATOM      2  C   UNL     1     -22.452 -27.771  -1.347  1.00  0.00    -0.039 A 
ATOM      3  C   UNL     1     -22.628 -26.733  -2.279  1.00  0.00     0.011 A 
ATOM      4  C   UNL     1     -21.804 -26.631  -3.404  1.00  0.00     0.086 A 
ATOM      5  C   UNL     1     -20.797 -27.580  -3.608  1.00  0.00     0.269 A 
ATOM      6  C   UNL     1     -21.445 -28.724  -1.580  1.00  0.00     0.011 A 
ATOM      7  C   UNL     1     -20.616 -28.629  -2.700  1.00  0.00     0.086 A 
BRANCH   5   8
ATOM      8  N   UNL     1     -19.928 -27.478  -4.787  1.00  0.00     0.062 N 
ATOM      9  O   UNL     1     -18.804 -27.996  -4.721  1.00  0.00    -0.258 OA
ATOM     10  O   UNL     1     -20.369 -26.883  -5.781  1.00  0.00    -0.258 OA
ENDBRANCH   5   8
ENDBRANCH   1   2
BRANCH   1  11
ATOM     11  C   UNL     1     -24.107 -29.227  -0.065  1.00  0.00     0.020 A 
ATOM     12  C   UNL     1     -24.941 -29.687  -1.019  1.00  0.00     0.206 A 
ATOM     13  C   UNL     1     -23.902 -30.096   1.126  1.00  0.00     0.025 A 
ATOM     14  C   UNL     1     -25.649 -30.989  -0.917  1.00  0.00     0.379 A 
ATOM     15  C   UNL     1     -23.050 -29.782   2.197  1.00  0.00     0.012 A 
ATOM     16  C   UNL     1     -24.586 -31.313   1.212  1.00  0.00     0.139 A 
ATOM     17  O   UNL     1     -26.385 -31.332  -1.843  1.00  0.00    -0.242 OA
ATOM     18  O   UNL     1     -25.459 -31.751   0.206  1.00  0.00    -0.420 OA
ATOM     19  C   UNL     1     -22.900 -30.643   3.293  1.00  0.00     0.001 A 
ATOM     20  C   UNL     1     -24.448 -32.182   2.300  1.00  0.00     0.048 A 
ATOM     21  C   UNL     1     -23.600 -31.843   3.345  1.00  0.00     0.004 A 
BRANCH  12  22
ATOM     22  O   UNL     1     -25.178 -28.981  -2.192  1.00  0.00    -0.502 OA
ATOM     23  H   UNL     1     -24.298 -28.896  -2.625  1.00  0.00     0.293 HD
ENDBRANCH  12  22
ENDBRANCH   1  11
BRANCH   1  24
ATOM     24  C   UNL     1     -24.273 -26.606  -0.053  1.00  0.00     0.088 C 
BRANCH  24  25
ATOM     25  C   UNL     1     -23.872 -25.669   1.074  1.00  0.00     0.130 C 
ATOM     26  O   UNL     1     -23.360 -24.567   0.871  1.00  0.00    -0.300 OA
ATOM     27  C   UNL     1     -24.070 -26.183   2.475  1.00  0.00     0.087 C 
ENDBRANCH  24  25
ENDBRANCH   1  24
TORSDOF 6
ENDMDL
