MODEL 1
REMARK VINA RESULT:    -5.721      0.000      0.000
REMARK INTER + INTRA:          -7.314
REMARK INTER:                  -7.058
REMARK INTRA:                  -0.255
REMARK UNBOUND:                -0.255
REMARK SMILES O=c1oc2ccccc2c(O)c1C(c1ccccc1)c1c(O)c2ccccc2oc1=O
REMARK SMILES IDX 13 1 12 2 1 3 2 4 3 5 4 6 10 7 5 8 9 9 6 10 8 11 7 12 11 13
REMARK SMILES IDX 14 15 15 16 19 17 16 18 18 19 17 20 20 21 21 22 30 23 23 24
REMARK SMILES IDX 29 25 31 26 24 27 28 28 25 29 27 30 26 31 22 32
REMARK H PARENT 11 14 22 33
ROOT
ATOM      1  C   UNL     1     -22.260 -27.292  -0.930  1.00  0.00     0.102 C 
ENDROOT
BRANCH   1   2
ATOM      2  C   UNL     1     -22.185 -26.120   0.056  1.00  0.00     0.092 A 
ATOM      3  O   UNL     1     -19.830 -25.880  -0.214  1.00  0.00    -0.246 OA
ATOM      4  C   UNL     1     -20.860 -25.520   0.346  1.00  0.00     0.344 A 
ATOM      5  O   UNL     1     -20.799 -24.534   1.323  1.00  0.00    -0.422 OA
ATOM      6  C   UNL     1     -21.951 -24.014   1.929  1.00  0.00     0.142 A 
ATOM      7  C   UNL     1     -23.277 -25.655   0.696  1.00  0.00     0.138 A 
ATOM      8  C   UNL     1     -21.770 -22.951   2.815  1.00  0.00     0.048 A 
ATOM      9  C   UNL     1     -23.208 -24.524   1.624  1.00  0.00     0.060 A 
ATOM     10  C   UNL     1     -22.883 -22.363   3.407  1.00  0.00     0.004 A 
ATOM     11  C   UNL     1     -24.321 -23.903   2.208  1.00  0.00     0.016 A 
ATOM     12  C   UNL     1     -24.159 -22.833   3.097  1.00  0.00     0.001 A 
BRANCH   7  13
ATOM     13  O   UNL     1     -24.512 -26.245   0.503  1.00  0.00    -0.507 OA
ATOM     14  H   UNL     1     -24.618 -26.442  -0.442  1.00  0.00     0.293 HD
ENDBRANCH   7  13
ENDBRANCH   1   2
BRANCH   1  15
ATOM     15  C   UNL     1     -23.132 -28.459  -0.446  1.00  0.00    -0.035 A 
ATOM     16  C   UNL     1     -22.871 -29.042   0.808  1.00  0.00     0.005 A 
ATOM     17  C   UNL     1     -24.189 -28.979  -1.211  1.00  0.00     0.005 A 
ATOM     18  C   UNL     1     -23.652 -30.096   1.288  1.00  0.00     0.000 A 
ATOM     19  C   UNL     1     -24.968 -30.034  -0.730  1.00  0.00     0.000 A 
ATOM     20  C   UNL     1     -24.702 -30.590   0.518  1.00  0.00     0.000 A 
ENDBRANCH   1  15
BRANCH   1  21
ATOM     21  C   UNL     1     -22.372 -26.896  -2.405  1.00  0.00     0.092 A 
ATOM     22  C   UNL     1     -21.450 -27.301  -3.301  1.00  0.00     0.138 A 
ATOM     23  C   UNL     1     -23.527 -26.073  -2.864  1.00  0.00     0.344 A 
ATOM     24  C   UNL     1     -21.515 -26.919  -4.714  1.00  0.00     0.060 A 
ATOM     25  O   UNL     1     -23.643 -25.858  -4.235  1.00  0.00    -0.422 OA
ATOM     26  O   UNL     1     -24.388 -25.624  -2.119  1.00  0.00    -0.246 OA
ATOM     27  C   UNL     1     -20.514 -27.185  -5.660  1.00  0.00     0.016 A 
ATOM     28  C   UNL     1     -22.639 -26.225  -5.142  1.00  0.00     0.142 A 
ATOM     29  C   UNL     1     -20.674 -26.797  -6.997  1.00  0.00     0.001 A 
ATOM     30  C   UNL     1     -22.816 -25.833  -6.470  1.00  0.00     0.048 A 
ATOM     31  C   UNL     1     -21.828 -26.128  -7.402  1.00  0.00     0.004 A 
BRANCH  22  32
ATOM     32  O   UNL     1     -20.396 -28.109  -2.910  1.00  0.00    -0.507 OA
ATOM     33  H   UNL     1     -20.408 -28.185  -1.940  1.00  0.00     0.293 HD
ENDBRANCH  22  32
ENDBRANCH   1  21
TORSDOF 5
ENDMDL
MODEL 2
REMARK VINA RESULT:    -5.662      1.637      5.308
REMARK INTER + INTRA:          -7.242
REMARK INTER:                  -7.130
REMARK INTRA:                  -0.111
REMARK UNBOUND:                -0.255
REMARK SMILES O=c1oc2ccccc2c(O)c1C(c1ccccc1)c1c(O)c2ccccc2oc1=O
REMARK SMILES IDX 13 1 12 2 1 3 2 4 3 5 4 6 10 7 5 8 9 9 6 10 8 11 7 12 11 13
REMARK SMILES IDX 14 15 15 16 19 17 16 18 18 19 17 20 20 21 21 22 30 23 23 24
REMARK SMILES IDX 29 25 31 26 24 27 28 28 25 29 27 30 26 31 22 32
REMARK H PARENT 11 14 22 33
ROOT
ATOM      1  C   UNL     1     -23.535 -27.202  -1.018  1.00  0.00     0.102 C 
ENDROOT
BRANCH   1   2
ATOM      2  C   UNL     1     -23.956 -28.549  -0.417  1.00  0.00     0.092 A 
ATOM      3  O   UNL     1     -25.464 -29.015  -2.201  1.00  0.00    -0.246 OA
ATOM      4  C   UNL     1     -24.982 -29.352  -1.126  1.00  0.00     0.344 A 
ATOM      5  O   UNL     1     -25.431 -30.514  -0.509  1.00  0.00    -0.422 OA
ATOM      6  C   UNL     1     -24.851 -31.001   0.671  1.00  0.00     0.142 A 
ATOM      7  C   UNL     1     -23.457 -28.997   0.753  1.00  0.00     0.138 A 
ATOM      8  C   UNL     1     -25.312 -32.235   1.134  1.00  0.00     0.048 A 
ATOM      9  C   UNL     1     -23.846 -30.291   1.317  1.00  0.00     0.060 A 
ATOM     10  C   UNL     1     -24.738 -32.790   2.273  1.00  0.00     0.004 A 
ATOM     11  C   UNL     1     -23.259 -30.876   2.447  1.00  0.00     0.016 A 
ATOM     12  C   UNL     1     -23.707 -32.114   2.925  1.00  0.00     0.001 A 
BRANCH   7  13
ATOM     13  O   UNL     1     -22.556 -28.234   1.473  1.00  0.00    -0.507 OA
ATOM     14  H   UNL     1     -22.544 -28.551   2.391  1.00  0.00     0.293 HD
ENDBRANCH   7  13
ENDBRANCH   1   2
BRANCH   1  15
ATOM     15  C   UNL     1     -23.334 -26.092   0.022  1.00  0.00    -0.035 A 
ATOM     16  C   UNL     1     -24.443 -25.621   0.752  1.00  0.00     0.005 A 
ATOM     17  C   UNL     1     -22.080 -25.515   0.278  1.00  0.00     0.005 A 
ATOM     18  C   UNL     1     -24.296 -24.621   1.716  1.00  0.00     0.000 A 
ATOM     19  C   UNL     1     -21.936 -24.514   1.242  1.00  0.00     0.000 A 
ATOM     20  C   UNL     1     -23.042 -24.070   1.962  1.00  0.00     0.000 A 
ENDBRANCH   1  15
BRANCH   1  21
ATOM     21  C   UNL     1     -22.517 -27.288  -2.158  1.00  0.00     0.092 A 
ATOM     22  C   UNL     1     -22.795 -26.774  -3.373  1.00  0.00     0.138 A 
ATOM     23  C   UNL     1     -21.191 -27.927  -1.920  1.00  0.00     0.344 A 
ATOM     24  C   UNL     1     -21.852 -26.861  -4.491  1.00  0.00     0.060 A 
ATOM     25  O   UNL     1     -20.262 -27.857  -2.956  1.00  0.00    -0.422 OA
ATOM     26  O   UNL     1     -20.866 -28.459  -0.867  1.00  0.00    -0.246 OA
ATOM     27  C   UNL     1     -22.140 -26.477  -5.810  1.00  0.00     0.016 A 
ATOM     28  C   UNL     1     -20.592 -27.381  -4.232  1.00  0.00     0.142 A 
ATOM     29  C   UNL     1     -21.166 -26.579  -6.812  1.00  0.00     0.001 A 
ATOM     30  C   UNL     1     -19.610 -27.489  -5.217  1.00  0.00     0.048 A 
ATOM     31  C   UNL     1     -19.900 -27.078  -6.513  1.00  0.00     0.004 A 
BRANCH  22  32
ATOM     32  O   UNL     1     -23.998 -26.129  -3.605  1.00  0.00    -0.507 OA
ATOM     33  H   UNL     1     -24.463 -26.592  -4.324  1.00  0.00     0.293 HD
ENDBRANCH  22  32
ENDBRANCH   1  21
TORSDOF 5
ENDMDL
MODEL 3
REMARK VINA RESULT:    -5.462      5.887     10.008
REMARK INTER + INTRA:          -6.994
REMARK INTER:                  -6.671
REMARK INTRA:                  -0.323
REMARK UNBOUND:                -0.255
REMARK SMILES O=c1oc2ccccc2c(O)c1C(c1ccccc1)c1c(O)c2ccccc2oc1=O
REMARK SMILES IDX 13 1 12 2 1 3 2 4 3 5 4 6 10 7 5 8 9 9 6 10 8 11 7 12 11 13
REMARK SMILES IDX 14 15 15 16 19 17 16 18 18 19 17 20 20 21 21 22 30 23 23 24
REMARK SMILES IDX 29 25 31 26 24 27 28 28 25 29 27 30 26 31 22 32
REMARK H PARENT 11 14 22 33
ROOT
ATOM      1  C   UNL     1     -28.957 -23.195   2.987  1.00  0.00     0.102 C 
ENDROOT
BRANCH   1   2
ATOM      2  C   UNL     1     -27.443 -23.379   2.824  1.00  0.00     0.092 A 
ATOM      3  O   UNL     1     -26.939 -21.719   4.457  1.00  0.00    -0.246 OA
ATOM      4  C   UNL     1     -26.534 -22.524   3.626  1.00  0.00     0.344 A 
ATOM      5  O   UNL     1     -25.170 -22.629   3.384  1.00  0.00    -0.422 OA
ATOM      6  C   UNL     1     -24.640 -23.596   2.517  1.00  0.00     0.142 A 
ATOM      7  C   UNL     1     -26.922 -24.258   1.944  1.00  0.00     0.138 A 
ATOM      8  C   UNL     1     -23.249 -23.675   2.440  1.00  0.00     0.048 A 
ATOM      9  C   UNL     1     -25.476 -24.446   1.802  1.00  0.00     0.060 A 
ATOM     10  C   UNL     1     -22.668 -24.649   1.634  1.00  0.00     0.004 A 
ATOM     11  C   UNL     1     -24.875 -25.439   1.016  1.00  0.00     0.016 A 
ATOM     12  C   UNL     1     -23.481 -25.536   0.928  1.00  0.00     0.001 A 
BRANCH   7  13
ATOM     13  O   UNL     1     -27.745 -25.013   1.130  1.00  0.00    -0.507 OA
ATOM     14  H   UNL     1     -28.143 -24.429   0.463  1.00  0.00     0.293 HD
ENDBRANCH   7  13
ENDBRANCH   1   2
BRANCH   1  15
ATOM     15  C   UNL     1     -29.636 -22.527   1.783  1.00  0.00    -0.035 A 
ATOM     16  C   UNL     1     -30.968 -22.085   1.900  1.00  0.00     0.005 A 
ATOM     17  C   UNL     1     -28.981 -22.339   0.555  1.00  0.00     0.005 A 
ATOM     18  C   UNL     1     -31.614 -21.461   0.830  1.00  0.00     0.000 A 
ATOM     19  C   UNL     1     -29.630 -21.716  -0.514  1.00  0.00     0.000 A 
ATOM     20  C   UNL     1     -30.943 -21.275  -0.376  1.00  0.00     0.000 A 
ENDBRANCH   1  15
BRANCH   1  21
ATOM     21  C   UNL     1     -29.689 -24.368   3.644  1.00  0.00     0.092 A 
ATOM     22  C   UNL     1     -29.722 -24.497   4.986  1.00  0.00     0.138 A 
ATOM     23  C   UNL     1     -30.395 -25.369   2.795  1.00  0.00     0.344 A 
ATOM     24  C   UNL     1     -30.393 -25.621   5.645  1.00  0.00     0.060 A 
ATOM     25  O   UNL     1     -31.150 -26.336   3.455  1.00  0.00    -0.422 OA
ATOM     26  O   UNL     1     -30.384 -25.359   1.571  1.00  0.00    -0.246 OA
ATOM     27  C   UNL     1     -30.338 -25.888   7.021  1.00  0.00     0.016 A 
ATOM     28  C   UNL     1     -31.116 -26.497   4.847  1.00  0.00     0.142 A 
ATOM     29  C   UNL     1     -31.029 -26.979   7.565  1.00  0.00     0.001 A 
ATOM     30  C   UNL     1     -31.812 -27.586   5.371  1.00  0.00     0.048 A 
ATOM     31  C   UNL     1     -31.772 -27.822   6.741  1.00  0.00     0.004 A 
BRANCH  22  32
ATOM     32  O   UNL     1     -29.119 -23.553   5.799  1.00  0.00    -0.507 OA
ATOM     33  H   UNL     1     -28.160 -23.718   5.805  1.00  0.00     0.293 HD
ENDBRANCH  22  32
ENDBRANCH   1  21
TORSDOF 5
ENDMDL
MODEL 4
REMARK VINA RESULT:    -5.396      3.677      7.204
REMARK INTER + INTRA:          -6.913
REMARK INTER:                  -7.118
REMARK INTRA:                   0.205
REMARK UNBOUND:                -0.255
REMARK SMILES O=c1oc2ccccc2c(O)c1C(c1ccccc1)c1c(O)c2ccccc2oc1=O
REMARK SMILES IDX 13 1 12 2 1 3 2 4 3 5 4 6 10 7 5 8 9 9 6 10 8 11 7 12 11 13
REMARK SMILES IDX 14 15 15 16 19 17 16 18 18 19 17 20 20 21 21 22 30 23 23 24
REMARK SMILES IDX 29 25 31 26 24 27 28 28 25 29 27 30 26 31 22 32
REMARK H PARENT 11 14 22 33
ROOT
ATOM      1  C   UNL     1     -22.081 -25.985  -6.862  1.00  0.00     0.102 C 
ENDROOT
BRANCH   1   2
ATOM      2  C   UNL     1     -22.650 -26.794  -5.690  1.00  0.00     0.092 A 
ATOM      3  O   UNL     1     -22.075 -28.880  -6.687  1.00  0.00    -0.246 OA
ATOM      4  C   UNL     1     -22.603 -28.275  -5.761  1.00  0.00     0.344 A 
ATOM      5  O   UNL     1     -23.222 -28.989  -4.742  1.00  0.00    -0.422 OA
ATOM      6  C   UNL     1     -23.757 -28.357  -3.610  1.00  0.00     0.142 A 
ATOM      7  C   UNL     1     -23.229 -26.199  -4.627  1.00  0.00     0.138 A 
ATOM      8  C   UNL     1     -24.254 -29.188  -2.604  1.00  0.00     0.048 A 
ATOM      9  C   UNL     1     -23.756 -26.972  -3.500  1.00  0.00     0.060 A 
ATOM     10  C   UNL     1     -24.751 -28.617  -1.437  1.00  0.00     0.004 A 
ATOM     11  C   UNL     1     -24.235 -26.414  -2.306  1.00  0.00     0.016 A 
ATOM     12  C   UNL     1     -24.735 -27.231  -1.285  1.00  0.00     0.001 A 
BRANCH   7  13
ATOM     13  O   UNL     1     -23.355 -24.824  -4.570  1.00  0.00    -0.507 OA
ATOM     14  H   UNL     1     -24.097 -24.603  -3.983  1.00  0.00     0.293 HD
ENDBRANCH   7  13
ENDBRANCH   1   2
BRANCH   1  15
ATOM     15  C   UNL     1     -20.795 -26.573  -7.459  1.00  0.00    -0.035 A 
ATOM     16  C   UNL     1     -19.670 -26.754  -6.632  1.00  0.00     0.005 A 
ATOM     17  C   UNL     1     -20.689 -26.938  -8.811  1.00  0.00     0.005 A 
ATOM     18  C   UNL     1     -18.487 -27.299  -7.137  1.00  0.00     0.000 A 
ATOM     19  C   UNL     1     -19.503 -27.481  -9.314  1.00  0.00     0.000 A 
ATOM     20  C   UNL     1     -18.406 -27.664  -8.478  1.00  0.00     0.000 A 
ENDBRANCH   1  15
BRANCH   1  21
ATOM     21  C   UNL     1     -23.124 -25.438  -7.842  1.00  0.00     0.092 A 
ATOM     22  C   UNL     1     -23.277 -24.110  -8.017  1.00  0.00     0.138 A 
ATOM     23  C   UNL     1     -23.965 -26.382  -8.631  1.00  0.00     0.344 A 
ATOM     24  C   UNL     1     -24.281 -23.555  -8.928  1.00  0.00     0.060 A 
ATOM     25  O   UNL     1     -24.800 -25.827  -9.597  1.00  0.00    -0.422 OA
ATOM     26  O   UNL     1     -23.928 -27.600  -8.508  1.00  0.00    -0.246 OA
ATOM     27  C   UNL     1     -24.586 -22.190  -9.044  1.00  0.00     0.016 A 
ATOM     28  C   UNL     1     -24.997 -24.445  -9.717  1.00  0.00     0.142 A 
ATOM     29  C   UNL     1     -25.552 -21.750  -9.959  1.00  0.00     0.001 A 
ATOM     30  C   UNL     1     -25.960 -24.024 -10.635  1.00  0.00     0.048 A 
ATOM     31  C   UNL     1     -26.232 -22.666 -10.759  1.00  0.00     0.004 A 
BRANCH  22  32
ATOM     32  O   UNL     1     -22.472 -23.213  -7.335  1.00  0.00    -0.507 OA
ATOM     33  H   UNL     1     -22.988 -22.828  -6.607  1.00  0.00     0.293 HD
ENDBRANCH  22  32
ENDBRANCH   1  21
TORSDOF 5
ENDMDL
MODEL 5
REMARK VINA RESULT:    -5.357      2.730      7.513
REMARK INTER + INTRA:          -6.865
REMARK INTER:                  -6.630
REMARK INTRA:                  -0.235
REMARK UNBOUND:                -0.255
REMARK SMILES O=c1oc2ccccc2c(O)c1C(c1ccccc1)c1c(O)c2ccccc2oc1=O
REMARK SMILES IDX 13 1 12 2 1 3 2 4 3 5 4 6 10 7 5 8 9 9 6 10 8 11 7 12 11 13
REMARK SMILES IDX 14 15 15 16 19 17 16 18 18 19 17 20 20 21 21 22 30 23 23 24
REMARK SMILES IDX 29 25 31 26 24 27 28 28 25 29 27 30 26 31 22 32
REMARK H PARENT 11 14 22 33
ROOT
ATOM      1  C   UNL     1     -24.533 -27.923  -3.977  1.00  0.00     0.102 C 
ENDROOT
BRANCH   1   2
ATOM      2  C   UNL     1     -23.321 -27.676  -4.884  1.00  0.00     0.092 A 
ATOM      3  O   UNL     1     -23.480 -25.309  -4.662  1.00  0.00    -0.246 OA
ATOM      4  C   UNL     1     -22.922 -26.276  -5.169  1.00  0.00     0.344 A 
ATOM      5  O   UNL     1     -21.893 -26.071  -6.080  1.00  0.00    -0.422 OA
ATOM      6  C   UNL     1     -21.154 -27.134  -6.618  1.00  0.00     0.142 A 
ATOM      7  C   UNL     1     -22.644 -28.688  -5.464  1.00  0.00     0.138 A 
ATOM      8  C   UNL     1     -20.074 -26.797  -7.436  1.00  0.00     0.048 A 
ATOM      9  C   UNL     1     -21.477 -28.451  -6.316  1.00  0.00     0.060 A 
ATOM     10  C   UNL     1     -19.276 -27.809  -7.958  1.00  0.00     0.004 A 
ATOM     11  C   UNL     1     -20.646 -29.459  -6.827  1.00  0.00     0.016 A 
ATOM     12  C   UNL     1     -19.557 -29.140  -7.647  1.00  0.00     0.001 A 
BRANCH   7  13
ATOM     13  O   UNL     1     -23.041 -29.999  -5.277  1.00  0.00    -0.507 OA
ATOM     14  H   UNL     1     -23.695 -30.226  -5.959  1.00  0.00     0.293 HD
ENDBRANCH   7  13
ENDBRANCH   1   2
BRANCH   1  15
ATOM     15  C   UNL     1     -25.599 -28.837  -4.597  1.00  0.00    -0.035 A 
ATOM     16  C   UNL     1     -25.927 -28.690  -5.958  1.00  0.00     0.005 A 
ATOM     17  C   UNL     1     -26.271 -29.823  -3.856  1.00  0.00     0.005 A 
ATOM     18  C   UNL     1     -26.882 -29.513  -6.559  1.00  0.00     0.000 A 
ATOM     19  C   UNL     1     -27.227 -30.644  -4.459  1.00  0.00     0.000 A 
ATOM     20  C   UNL     1     -27.530 -30.491  -5.809  1.00  0.00     0.000 A 
ENDBRANCH   1  15
BRANCH   1  21
ATOM     21  C   UNL     1     -24.205 -28.130  -2.496  1.00  0.00     0.092 A 
ATOM     22  C   UNL     1     -24.333 -27.120  -1.612  1.00  0.00     0.138 A 
ATOM     23  C   UNL     1     -23.762 -29.471  -2.016  1.00  0.00     0.344 A 
ATOM     24  C   UNL     1     -24.004 -27.279  -0.193  1.00  0.00     0.060 A 
ATOM     25  O   UNL     1     -23.606 -29.629  -0.641  1.00  0.00    -0.422 OA
ATOM     26  O   UNL     1     -23.575 -30.433  -2.749  1.00  0.00    -0.246 OA
ATOM     27  C   UNL     1     -23.977 -26.234   0.742  1.00  0.00     0.016 A 
ATOM     28  C   UNL     1     -23.675 -28.552   0.253  1.00  0.00     0.142 A 
ATOM     29  C   UNL     1     -23.669 -26.486   2.086  1.00  0.00     0.001 A 
ATOM     30  C   UNL     1     -23.368 -28.821   1.587  1.00  0.00     0.048 A 
ATOM     31  C   UNL     1     -23.373 -27.780   2.509  1.00  0.00     0.004 A 
BRANCH  22  32
ATOM     32  O   UNL     1     -24.792 -25.881  -2.022  1.00  0.00    -0.507 OA
ATOM     33  H   UNL     1     -24.705 -25.824  -2.989  1.00  0.00     0.293 HD
ENDBRANCH  22  32
ENDBRANCH   1  21
TORSDOF 5
ENDMDL
MODEL 6
REMARK VINA RESULT:    -5.335      1.056      6.560
REMARK INTER + INTRA:          -6.838
REMARK INTER:                  -7.006
REMARK INTRA:                   0.168
REMARK UNBOUND:                -0.255
REMARK SMILES O=c1oc2ccccc2c(O)c1C(c1ccccc1)c1c(O)c2ccccc2oc1=O
REMARK SMILES IDX 13 1 12 2 1 3 2 4 3 5 4 6 10 7 5 8 9 9 6 10 8 11 7 12 11 13
REMARK SMILES IDX 14 15 15 16 19 17 16 18 18 19 17 20 20 21 21 22 30 23 23 24
REMARK SMILES IDX 29 25 31 26 24 27 28 28 25 29 27 30 26 31 22 32
REMARK H PARENT 11 14 22 33
ROOT
ATOM      1  C   UNL     1     -23.632 -27.339  -0.116  1.00  0.00     0.102 C 
ENDROOT
BRANCH   1   2
ATOM      2  C   UNL     1     -22.998 -27.320  -1.512  1.00  0.00     0.092 A 
ATOM      3  O   UNL     1     -21.371 -28.961  -0.932  1.00  0.00    -0.246 OA
ATOM      4  C   UNL     1     -21.821 -28.186  -1.768  1.00  0.00     0.344 A 
ATOM      5  O   UNL     1     -21.193 -28.072  -3.003  1.00  0.00    -0.422 OA
ATOM      6  C   UNL     1     -21.715 -27.276  -4.032  1.00  0.00     0.142 A 
ATOM      7  C   UNL     1     -23.448 -26.508  -2.490  1.00  0.00     0.138 A 
ATOM      8  C   UNL     1     -21.057 -27.328  -5.262  1.00  0.00     0.048 A 
ATOM      9  C   UNL     1     -22.852 -26.503  -3.828  1.00  0.00     0.060 A 
ATOM     10  C   UNL     1     -21.560 -26.598  -6.333  1.00  0.00     0.004 A 
ATOM     11  C   UNL     1     -23.363 -25.794  -4.925  1.00  0.00     0.016 A 
ATOM     12  C   UNL     1     -22.717 -25.837  -6.167  1.00  0.00     0.001 A 
BRANCH   7  13
ATOM     13  O   UNL     1     -24.494 -25.636  -2.256  1.00  0.00    -0.507 OA
ATOM     14  H   UNL     1     -24.486 -25.384  -1.318  1.00  0.00     0.293 HD
ENDBRANCH   7  13
ENDBRANCH   1   2
BRANCH   1  15
ATOM     15  C   UNL     1     -23.733 -28.740   0.504  1.00  0.00    -0.035 A 
ATOM     16  C   UNL     1     -24.413 -29.756  -0.194  1.00  0.00     0.005 A 
ATOM     17  C   UNL     1     -23.172 -29.055   1.752  1.00  0.00     0.005 A 
ATOM     18  C   UNL     1     -24.512 -31.046   0.332  1.00  0.00     0.000 A 
ATOM     19  C   UNL     1     -23.275 -30.345   2.278  1.00  0.00     0.000 A 
ATOM     20  C   UNL     1     -23.941 -31.340   1.567  1.00  0.00     0.000 A 
ENDBRANCH   1  15
BRANCH   1  21
ATOM     21  C   UNL     1     -23.211 -26.192   0.806  1.00  0.00     0.092 A 
ATOM     22  C   UNL     1     -24.101 -25.258   1.198  1.00  0.00     0.138 A 
ATOM     23  C   UNL     1     -21.806 -26.117   1.300  1.00  0.00     0.344 A 
ATOM     24  C   UNL     1     -23.724 -24.134   2.060  1.00  0.00     0.060 A 
ATOM     25  O   UNL     1     -21.519 -25.128   2.237  1.00  0.00    -0.422 OA
ATOM     26  O   UNL     1     -20.920 -26.892   0.964  1.00  0.00    -0.246 OA
ATOM     27  C   UNL     1     -24.563 -23.058   2.381  1.00  0.00     0.016 A 
ATOM     28  C   UNL     1     -22.436 -24.125   2.579  1.00  0.00     0.142 A 
ATOM     29  C   UNL     1     -24.121 -22.036   3.231  1.00  0.00     0.001 A 
ATOM     30  C   UNL     1     -21.979 -23.117   3.428  1.00  0.00     0.048 A 
ATOM     31  C   UNL     1     -22.832 -22.070   3.760  1.00  0.00     0.004 A 
BRANCH  22  32
ATOM     32  O   UNL     1     -25.423 -25.334   0.796  1.00  0.00    -0.507 OA
ATOM     33  H   UNL     1     -25.985 -25.370   1.589  1.00  0.00     0.293 HD
ENDBRANCH  22  32
ENDBRANCH   1  21
TORSDOF 5
ENDMDL
MODEL 7
REMARK VINA RESULT:    -5.313      1.320      6.253
REMARK INTER + INTRA:          -6.811
REMARK INTER:                  -7.026
REMARK INTRA:                   0.215
REMARK UNBOUND:                -0.255
REMARK SMILES O=c1oc2ccccc2c(O)c1C(c1ccccc1)c1c(O)c2ccccc2oc1=O
REMARK SMILES IDX 13 1 12 2 1 3 2 4 3 5 4 6 10 7 5 8 9 9 6 10 8 11 7 12 11 13
REMARK SMILES IDX 14 15 15 16 19 17 16 18 18 19 17 20 20 21 21 22 30 23 23 24
REMARK SMILES IDX 29 25 31 26 24 27 28 28 25 29 27 30 26 31 22 32
REMARK H PARENT 11 14 22 33
ROOT
ATOM      1  C   UNL     1     -23.530 -26.962   0.226  1.00  0.00     0.102 C 
ENDROOT
BRANCH   1   2
ATOM      2  C   UNL     1     -22.897 -27.036  -1.169  1.00  0.00     0.092 A 
ATOM      3  O   UNL     1     -21.117 -28.433  -0.423  1.00  0.00    -0.246 OA
ATOM      4  C   UNL     1     -21.639 -27.805  -1.337  1.00  0.00     0.344 A 
ATOM      5  O   UNL     1     -21.022 -27.767  -2.582  1.00  0.00    -0.422 OA
ATOM      6  C   UNL     1     -21.618 -27.147  -3.689  1.00  0.00     0.142 A 
ATOM      7  C   UNL     1     -23.423 -26.387  -2.227  1.00  0.00     0.138 A 
ATOM      8  C   UNL     1     -20.954 -27.271  -4.910  1.00  0.00     0.048 A 
ATOM      9  C   UNL     1     -22.827 -26.472  -3.562  1.00  0.00     0.060 A 
ATOM     10  C   UNL     1     -21.525 -26.718  -6.052  1.00  0.00     0.004 A 
ATOM     11  C   UNL     1     -23.402 -25.945  -4.727  1.00  0.00     0.016 A 
ATOM     12  C   UNL     1     -22.752 -26.061  -5.962  1.00  0.00     0.001 A 
BRANCH   7  13
ATOM     13  O   UNL     1     -24.551 -25.602  -2.083  1.00  0.00    -0.507 OA
ATOM     14  H   UNL     1     -25.136 -25.755  -2.843  1.00  0.00     0.293 HD
ENDBRANCH   7  13
ENDBRANCH   1   2
BRANCH   1  15
ATOM     15  C   UNL     1     -23.478 -28.283   1.005  1.00  0.00    -0.035 A 
ATOM     16  C   UNL     1     -24.012 -29.449   0.424  1.00  0.00     0.005 A 
ATOM     17  C   UNL     1     -22.917 -28.381   2.289  1.00  0.00     0.005 A 
ATOM     18  C   UNL     1     -23.969 -30.672   1.098  1.00  0.00     0.000 A 
ATOM     19  C   UNL     1     -22.877 -29.605   2.962  1.00  0.00     0.000 A 
ATOM     20  C   UNL     1     -23.400 -30.749   2.366  1.00  0.00     0.000 A 
ENDBRANCH   1  15
BRANCH   1  21
ATOM     21  C   UNL     1     -23.241 -25.676   1.005  1.00  0.00     0.092 A 
ATOM     22  C   UNL     1     -21.974 -25.275   1.231  1.00  0.00     0.138 A 
ATOM     23  C   UNL     1     -24.372 -24.840   1.499  1.00  0.00     0.344 A 
ATOM     24  C   UNL     1     -21.664 -24.063   1.993  1.00  0.00     0.060 A 
ATOM     25  O   UNL     1     -24.046 -23.619   2.083  1.00  0.00    -0.422 OA
ATOM     26  O   UNL     1     -25.552 -25.144   1.380  1.00  0.00    -0.246 OA
ATOM     27  C   UNL     1     -20.374 -23.674   2.384  1.00  0.00     0.016 A 
ATOM     28  C   UNL     1     -22.724 -23.252   2.373  1.00  0.00     0.142 A 
ATOM     29  C   UNL     1     -20.172 -22.485   3.096  1.00  0.00     0.001 A 
ATOM     30  C   UNL     1     -22.542 -22.063   3.080  1.00  0.00     0.048 A 
ATOM     31  C   UNL     1     -21.255 -21.676   3.437  1.00  0.00     0.004 A 
BRANCH  22  32
ATOM     32  O   UNL     1     -20.907 -26.006   0.737  1.00  0.00    -0.507 OA
ATOM     33  H   UNL     1     -20.171 -25.395   0.557  1.00  0.00     0.293 HD
ENDBRANCH  22  32
ENDBRANCH   1  21
TORSDOF 5
ENDMDL
MODEL 8
REMARK VINA RESULT:    -5.284      2.493      4.056
REMARK INTER + INTRA:          -6.775
REMARK INTER:                  -6.830
REMARK INTRA:                   0.055
REMARK UNBOUND:                -0.255
REMARK SMILES O=c1oc2ccccc2c(O)c1C(c1ccccc1)c1c(O)c2ccccc2oc1=O
REMARK SMILES IDX 13 1 12 2 1 3 2 4 3 5 4 6 10 7 5 8 9 9 6 10 8 11 7 12 11 13
REMARK SMILES IDX 14 15 15 16 19 17 16 18 18 19 17 20 20 21 21 22 30 23 23 24
REMARK SMILES IDX 29 25 31 26 24 27 28 28 25 29 27 30 26 31 22 32
REMARK H PARENT 11 14 22 33
ROOT
ATOM      1  C   UNL     1     -23.059 -28.521  -3.594  1.00  0.00     0.102 C 
ENDROOT
BRANCH   1   2
ATOM      2  C   UNL     1     -23.313 -27.788  -2.270  1.00  0.00     0.092 A 
ATOM      3  O   UNL     1     -23.969 -25.776  -3.365  1.00  0.00    -0.246 OA
ATOM      4  C   UNL     1     -23.746 -26.370  -2.316  1.00  0.00     0.344 A 
ATOM      5  O   UNL     1     -23.863 -25.693  -1.108  1.00  0.00    -0.422 OA
ATOM      6  C   UNL     1     -23.715 -26.341   0.126  1.00  0.00     0.142 A 
ATOM      7  C   UNL     1     -23.108 -28.380  -1.076  1.00  0.00     0.138 A 
ATOM      8  C   UNL     1     -23.965 -25.581   1.269  1.00  0.00     0.048 A 
ATOM      9  C   UNL     1     -23.368 -27.686   0.187  1.00  0.00     0.060 A 
ATOM     10  C   UNL     1     -23.882 -26.185   2.519  1.00  0.00     0.004 A 
ATOM     11  C   UNL     1     -23.315 -28.288   1.452  1.00  0.00     0.016 A 
ATOM     12  C   UNL     1     -23.565 -27.541   2.610  1.00  0.00     0.001 A 
BRANCH   7  13
ATOM     13  O   UNL     1     -22.632 -29.676  -1.004  1.00  0.00    -0.507 OA
ATOM     14  H   UNL     1     -22.147 -29.783  -0.169  1.00  0.00     0.293 HD
ENDBRANCH   7  13
ENDBRANCH   1   2
BRANCH   1  15
ATOM     15  C   UNL     1     -24.339 -28.956  -4.320  1.00  0.00    -0.035 A 
ATOM     16  C   UNL     1     -24.242 -29.802  -5.442  1.00  0.00     0.005 A 
ATOM     17  C   UNL     1     -25.617 -28.541  -3.912  1.00  0.00     0.005 A 
ATOM     18  C   UNL     1     -25.386 -30.230  -6.120  1.00  0.00     0.000 A 
ATOM     19  C   UNL     1     -26.760 -28.968  -4.593  1.00  0.00     0.000 A 
ATOM     20  C   UNL     1     -26.645 -29.814  -5.693  1.00  0.00     0.000 A 
ENDBRANCH   1  15
BRANCH   1  21
ATOM     21  C   UNL     1     -21.927 -27.944  -4.450  1.00  0.00     0.092 A 
ATOM     22  C   UNL     1     -20.640 -28.245  -4.186  1.00  0.00     0.138 A 
ATOM     23  C   UNL     1     -22.250 -27.058  -5.604  1.00  0.00     0.344 A 
ATOM     24  C   UNL     1     -19.533 -27.692  -4.970  1.00  0.00     0.060 A 
ATOM     25  O   UNL     1     -21.189 -26.674  -6.420  1.00  0.00    -0.422 OA
ATOM     26  O   UNL     1     -23.383 -26.695  -5.893  1.00  0.00    -0.246 OA
ATOM     27  C   UNL     1     -18.175 -27.850  -4.657  1.00  0.00     0.016 A 
ATOM     28  C   UNL     1     -19.852 -26.938  -6.092  1.00  0.00     0.142 A 
ATOM     29  C   UNL     1     -17.183 -27.298  -5.479  1.00  0.00     0.001 A 
ATOM     30  C   UNL     1     -18.879 -26.383  -6.923  1.00  0.00     0.048 A 
ATOM     31  C   UNL     1     -17.536 -26.572  -6.616  1.00  0.00     0.004 A 
BRANCH  22  32
ATOM     32  O   UNL     1     -20.317 -29.107  -3.152  1.00  0.00    -0.507 OA
ATOM     33  H   UNL     1     -19.719 -29.793  -3.497  1.00  0.00     0.293 HD
ENDBRANCH  22  32
ENDBRANCH   1  21
TORSDOF 5
ENDMDL
MODEL 9
REMARK VINA RESULT:    -5.266      3.254      7.664
REMARK INTER + INTRA:          -6.752
REMARK INTER:                  -6.404
REMARK INTRA:                  -0.348
REMARK UNBOUND:                -0.255
REMARK SMILES O=c1oc2ccccc2c(O)c1C(c1ccccc1)c1c(O)c2ccccc2oc1=O
REMARK SMILES IDX 13 1 12 2 1 3 2 4 3 5 4 6 10 7 5 8 9 9 6 10 8 11 7 12 11 13
REMARK SMILES IDX 14 15 15 16 19 17 16 18 18 19 17 20 20 21 21 22 30 23 23 24
REMARK SMILES IDX 29 25 31 26 24 27 28 28 25 29 27 30 26 31 22 32
REMARK H PARENT 11 14 22 33
ROOT
ATOM      1  C   UNL     1     -23.406 -28.978  -2.509  1.00  0.00     0.102 C 
ENDROOT
BRANCH   1   2
ATOM      2  C   UNL     1     -24.681 -29.556  -3.135  1.00  0.00     0.092 A 
ATOM      3  O   UNL     1     -24.868 -31.263  -1.483  1.00  0.00    -0.246 OA
ATOM      4  C   UNL     1     -25.298 -30.752  -2.511  1.00  0.00     0.344 A 
ATOM      5  O   UNL     1     -26.387 -31.326  -3.156  1.00  0.00    -0.422 OA
ATOM      6  C   UNL     1     -26.982 -30.736  -4.280  1.00  0.00     0.142 A 
ATOM      7  C   UNL     1     -25.225 -29.038  -4.255  1.00  0.00     0.138 A 
ATOM      8  C   UNL     1     -28.136 -31.346  -4.773  1.00  0.00     0.048 A 
ATOM      9  C   UNL     1     -26.452 -29.580  -4.842  1.00  0.00     0.060 A 
ATOM     10  C   UNL     1     -28.797 -30.775  -5.855  1.00  0.00     0.004 A 
ATOM     11  C   UNL     1     -27.145 -29.002  -5.915  1.00  0.00     0.016 A 
ATOM     12  C   UNL     1     -28.307 -29.598  -6.421  1.00  0.00     0.001 A 
BRANCH   7  13
ATOM     13  O   UNL     1     -24.628 -27.971  -4.900  1.00  0.00    -0.507 OA
ATOM     14  H   UNL     1     -25.277 -27.252  -4.977  1.00  0.00     0.293 HD
ENDBRANCH   7  13
ENDBRANCH   1   2
BRANCH   1  15
ATOM     15  C   UNL     1     -22.298 -28.669  -3.526  1.00  0.00    -0.035 A 
ATOM     16  C   UNL     1     -21.964 -29.631  -4.497  1.00  0.00     0.005 A 
ATOM     17  C   UNL     1     -21.591 -27.455  -3.526  1.00  0.00     0.005 A 
ATOM     18  C   UNL     1     -20.971 -29.380  -5.447  1.00  0.00     0.000 A 
ATOM     19  C   UNL     1     -20.597 -27.206  -4.476  1.00  0.00     0.000 A 
ATOM     20  C   UNL     1     -20.289 -28.166  -5.436  1.00  0.00     0.000 A 
ENDBRANCH   1  15
BRANCH   1  21
ATOM     21  C   UNL     1     -23.635 -27.959  -1.388  1.00  0.00     0.092 A 
ATOM     22  C   UNL     1     -23.377 -28.277  -0.104  1.00  0.00     0.138 A 
ATOM     23  C   UNL     1     -24.125 -26.591  -1.720  1.00  0.00     0.344 A 
ATOM     24  C   UNL     1     -23.609 -27.334   0.994  1.00  0.00     0.060 A 
ATOM     25  O   UNL     1     -24.188 -25.673  -0.676  1.00  0.00    -0.422 OA
ATOM     26  O   UNL     1     -24.427 -26.227  -2.849  1.00  0.00    -0.246 OA
ATOM     27  C   UNL     1     -23.499 -27.652   2.356  1.00  0.00     0.016 A 
ATOM     28  C   UNL     1     -23.984 -26.039   0.662  1.00  0.00     0.142 A 
ATOM     29  C   UNL     1     -23.722 -26.676   3.337  1.00  0.00     0.001 A 
ATOM     30  C   UNL     1     -24.207 -25.055   1.625  1.00  0.00     0.048 A 
ATOM     31  C   UNL     1     -24.067 -25.377   2.970  1.00  0.00     0.004 A 
BRANCH  22  32
ATOM     32  O   UNL     1     -22.872 -29.523   0.225  1.00  0.00    -0.507 OA
ATOM     33  H   UNL     1     -22.022 -29.642  -0.233  1.00  0.00     0.293 HD
ENDBRANCH  22  32
ENDBRANCH   1  21
TORSDOF 5
ENDMDL
MODEL 10
REMARK VINA RESULT:    -5.252      4.042      7.410
REMARK INTER + INTRA:          -6.736
REMARK INTER:                  -6.463
REMARK INTRA:                  -0.273
REMARK UNBOUND:                -0.255
REMARK SMILES O=c1oc2ccccc2c(O)c1C(c1ccccc1)c1c(O)c2ccccc2oc1=O
REMARK SMILES IDX 13 1 12 2 1 3 2 4 3 5 4 6 10 7 5 8 9 9 6 10 8 11 7 12 11 13
REMARK SMILES IDX 14 15 15 16 19 17 16 18 18 19 17 20 20 21 21 22 30 23 23 24
REMARK SMILES IDX 29 25 31 26 24 27 28 28 25 29 27 30 26 31 22 32
REMARK H PARENT 11 14 22 33
ROOT
ATOM      1  C   UNL     1     -25.314 -24.428   2.862  1.00  0.00     0.102 C 
ENDROOT
BRANCH   1   2
ATOM      2  C   UNL     1     -23.976 -24.550   2.122  1.00  0.00     0.092 A 
ATOM      3  O   UNL     1     -24.884 -25.996   0.461  1.00  0.00    -0.246 OA
ATOM      4  C   UNL     1     -23.906 -25.419   0.922  1.00  0.00     0.344 A 
ATOM      5  O   UNL     1     -22.661 -25.604   0.332  1.00  0.00    -0.422 OA
ATOM      6  C   UNL     1     -21.525 -24.898   0.755  1.00  0.00     0.142 A 
ATOM      7  C   UNL     1     -22.860 -23.931   2.558  1.00  0.00     0.138 A 
ATOM      8  C   UNL     1     -20.358 -25.087   0.014  1.00  0.00     0.048 A 
ATOM      9  C   UNL     1     -21.587 -24.034   1.841  1.00  0.00     0.060 A 
ATOM     10  C   UNL     1     -19.213 -24.375   0.357  1.00  0.00     0.004 A 
ATOM     11  C   UNL     1     -20.433 -23.303   2.157  1.00  0.00     0.016 A 
ATOM     12  C   UNL     1     -19.253 -23.476   1.423  1.00  0.00     0.001 A 
BRANCH   7  13
ATOM     13  O   UNL     1     -22.879 -23.176   3.716  1.00  0.00    -0.507 OA
ATOM     14  H   UNL     1     -22.289 -22.413   3.600  1.00  0.00     0.293 HD
ENDBRANCH   7  13
ENDBRANCH   1   2
BRANCH   1  15
ATOM     15  C   UNL     1     -25.204 -24.608   4.382  1.00  0.00    -0.035 A 
ATOM     16  C   UNL     1     -24.308 -25.562   4.901  1.00  0.00     0.005 A 
ATOM     17  C   UNL     1     -25.970 -23.857   5.289  1.00  0.00     0.005 A 
ATOM     18  C   UNL     1     -24.171 -25.744   6.279  1.00  0.00     0.000 A 
ATOM     19  C   UNL     1     -25.832 -24.043   6.667  1.00  0.00     0.000 A 
ATOM     20  C   UNL     1     -24.932 -24.983   7.161  1.00  0.00     0.000 A 
ENDBRANCH   1  15
BRANCH   1  21
ATOM     21  C   UNL     1     -26.241 -23.321   2.352  1.00  0.00     0.092 A 
ATOM     22  C   UNL     1     -27.327 -23.618   1.610  1.00  0.00     0.138 A 
ATOM     23  C   UNL     1     -25.957 -21.899   2.697  1.00  0.00     0.344 A 
ATOM     24  C   UNL     1     -28.221 -22.581   1.086  1.00  0.00     0.060 A 
ATOM     25  O   UNL     1     -26.906 -20.955   2.315  1.00  0.00    -0.422 OA
ATOM     26  O   UNL     1     -24.973 -21.530   3.326  1.00  0.00    -0.246 OA
ATOM     27  C   UNL     1     -29.277 -22.814   0.193  1.00  0.00     0.016 A 
ATOM     28  C   UNL     1     -27.991 -21.272   1.486  1.00  0.00     0.142 A 
ATOM     29  C   UNL     1     -30.092 -21.760  -0.240  1.00  0.00     0.001 A 
ATOM     30  C   UNL     1     -28.794 -20.210   1.067  1.00  0.00     0.048 A 
ATOM     31  C   UNL     1     -29.855 -20.460   0.204  1.00  0.00     0.004 A 
BRANCH  22  32
ATOM     32  O   UNL     1     -27.643 -24.934   1.320  1.00  0.00    -0.507 OA
ATOM     33  H   UNL     1     -28.581 -25.080   1.529  1.00  0.00     0.293 HD
ENDBRANCH  22  32
ENDBRANCH   1  21
TORSDOF 5
ENDMDL
MODEL 11
REMARK VINA RESULT:    -5.236      2.594      5.573
REMARK INTER + INTRA:          -6.716
REMARK INTER:                  -6.417
REMARK INTRA:                  -0.299
REMARK UNBOUND:                -0.255
REMARK SMILES O=c1oc2ccccc2c(O)c1C(c1ccccc1)c1c(O)c2ccccc2oc1=O
REMARK SMILES IDX 13 1 12 2 1 3 2 4 3 5 4 6 10 7 5 8 9 9 6 10 8 11 7 12 11 13
REMARK SMILES IDX 14 15 15 16 19 17 16 18 18 19 17 20 20 21 21 22 30 23 23 24
REMARK SMILES IDX 29 25 31 26 24 27 28 28 25 29 27 30 26 31 22 32
REMARK H PARENT 11 14 22 33
ROOT
ATOM      1  C   UNL     1     -24.137 -28.088  -0.426  1.00  0.00     0.102 C 
ENDROOT
BRANCH   1   2
ATOM      2  C   UNL     1     -23.481 -29.435  -0.100  1.00  0.00     0.092 A 
ATOM      3  O   UNL     1     -25.563 -30.594  -0.113  1.00  0.00    -0.246 OA
ATOM      4  C   UNL     1     -24.350 -30.626   0.063  1.00  0.00     0.344 A 
ATOM      5  O   UNL     1     -23.748 -31.812   0.467  1.00  0.00    -0.422 OA
ATOM      6  C   UNL     1     -22.357 -31.936   0.591  1.00  0.00     0.142 A 
ATOM      7  C   UNL     1     -22.151 -29.554   0.089  1.00  0.00     0.138 A 
ATOM      8  C   UNL     1     -21.865 -33.206   0.897  1.00  0.00     0.048 A 
ATOM      9  C   UNL     1     -21.523 -30.844   0.384  1.00  0.00     0.060 A 
ATOM     10  C   UNL     1     -20.490 -33.399   0.982  1.00  0.00     0.004 A 
ATOM     11  C   UNL     1     -20.140 -31.060   0.447  1.00  0.00     0.016 A 
ATOM     12  C   UNL     1     -19.627 -32.328   0.750  1.00  0.00     0.001 A 
BRANCH   7  13
ATOM     13  O   UNL     1     -21.327 -28.446   0.019  1.00  0.00    -0.507 OA
ATOM     14  H   UNL     1     -21.133 -28.145   0.922  1.00  0.00     0.293 HD
ENDBRANCH   7  13
ENDBRANCH   1   2
BRANCH   1  15
ATOM     15  C   UNL     1     -24.146 -27.098   0.747  1.00  0.00    -0.035 A 
ATOM     16  C   UNL     1     -24.754 -25.839   0.583  1.00  0.00     0.005 A 
ATOM     17  C   UNL     1     -23.563 -27.395   1.989  1.00  0.00     0.005 A 
ATOM     18  C   UNL     1     -24.793 -24.918   1.633  1.00  0.00     0.000 A 
ATOM     19  C   UNL     1     -23.601 -26.472   3.037  1.00  0.00     0.000 A 
ATOM     20  C   UNL     1     -24.218 -25.236   2.860  1.00  0.00     0.000 A 
ENDBRANCH   1  15
BRANCH   1  21
ATOM     21  C   UNL     1     -23.817 -27.528  -1.815  1.00  0.00     0.092 A 
ATOM     22  C   UNL     1     -24.494 -27.950  -2.903  1.00  0.00     0.138 A 
ATOM     23  C   UNL     1     -22.763 -26.485  -1.968  1.00  0.00     0.344 A 
ATOM     24  C   UNL     1     -24.195 -27.452  -4.248  1.00  0.00     0.060 A 
ATOM     25  O   UNL     1     -22.610 -25.923  -3.233  1.00  0.00    -0.422 OA
ATOM     26  O   UNL     1     -22.068 -26.073  -1.048  1.00  0.00    -0.246 OA
ATOM     27  C   UNL     1     -24.760 -27.956  -5.429  1.00  0.00     0.016 A 
ATOM     28  C   UNL     1     -23.272 -26.422  -4.364  1.00  0.00     0.142 A 
ATOM     29  C   UNL     1     -24.428 -27.402  -6.673  1.00  0.00     0.001 A 
ATOM     30  C   UNL     1     -22.930 -25.857  -5.593  1.00  0.00     0.048 A 
ATOM     31  C   UNL     1     -23.519 -26.348  -6.753  1.00  0.00     0.004 A 
BRANCH  22  32
ATOM     32  O   UNL     1     -25.513 -28.878  -2.780  1.00  0.00    -0.507 OA
ATOM     33  H   UNL     1     -25.609 -29.345  -3.628  1.00  0.00     0.293 HD
ENDBRANCH  22  32
ENDBRANCH   1  21
TORSDOF 5
ENDMDL
MODEL 12
REMARK VINA RESULT:    -5.217      1.853      6.835
REMARK INTER + INTRA:          -6.692
REMARK INTER:                  -6.657
REMARK INTRA:                  -0.035
REMARK UNBOUND:                -0.255
REMARK SMILES O=c1oc2ccccc2c(O)c1C(c1ccccc1)c1c(O)c2ccccc2oc1=O
REMARK SMILES IDX 13 1 12 2 1 3 2 4 3 5 4 6 10 7 5 8 9 9 6 10 8 11 7 12 11 13
REMARK SMILES IDX 14 15 15 16 19 17 16 18 18 19 17 20 20 21 21 22 30 23 23 24
REMARK SMILES IDX 29 25 31 26 24 27 28 28 25 29 27 30 26 31 22 32
REMARK H PARENT 11 14 22 33
ROOT
ATOM      1  C   UNL     1     -22.597 -27.674   0.137  1.00  0.00     0.102 C 
ENDROOT
BRANCH   1   2
ATOM      2  C   UNL     1     -22.227 -27.512  -1.343  1.00  0.00     0.092 A 
ATOM      3  O   UNL     1     -20.282 -28.872  -1.135  1.00  0.00    -0.246 OA
ATOM      4  C   UNL     1     -20.989 -28.161  -1.840  1.00  0.00     0.344 A 
ATOM      5  O   UNL     1     -20.613 -27.911  -3.154  1.00  0.00    -0.422 OA
ATOM      6  C   UNL     1     -21.428 -27.186  -4.036  1.00  0.00     0.142 A 
ATOM      7  C   UNL     1     -22.965 -26.761  -2.185  1.00  0.00     0.138 A 
ATOM      8  C   UNL     1     -20.994 -27.095  -5.359  1.00  0.00     0.048 A 
ATOM      9  C   UNL     1     -22.621 -26.620  -3.602  1.00  0.00     0.060 A 
ATOM     10  C   UNL     1     -21.787 -26.430  -6.289  1.00  0.00     0.004 A 
ATOM     11  C   UNL     1     -23.422 -25.978  -4.556  1.00  0.00     0.016 A 
ATOM     12  C   UNL     1     -23.005 -25.879  -5.889  1.00  0.00     0.001 A 
BRANCH   7  13
ATOM     13  O   UNL     1     -24.081 -26.083  -1.731  1.00  0.00    -0.507 OA
ATOM     14  H   UNL     1     -24.848 -26.676  -1.782  1.00  0.00     0.293 HD
ENDBRANCH   7  13
ENDBRANCH   1   2
BRANCH   1  15
ATOM     15  C   UNL     1     -23.069 -26.377   0.807  1.00  0.00    -0.035 A 
ATOM     16  C   UNL     1     -22.151 -25.328   1.004  1.00  0.00     0.005 A 
ATOM     17  C   UNL     1     -24.392 -26.190   1.241  1.00  0.00     0.005 A 
ATOM     18  C   UNL     1     -22.548 -24.128   1.598  1.00  0.00     0.000 A 
ATOM     19  C   UNL     1     -24.786 -24.989   1.837  1.00  0.00     0.000 A 
ATOM     20  C   UNL     1     -23.866 -23.958   2.012  1.00  0.00     0.000 A 
ENDBRANCH   1  15
BRANCH   1  21
ATOM     21  C   UNL     1     -23.356 -28.959   0.480  1.00  0.00     0.092 A 
ATOM     22  C   UNL     1     -22.982 -29.724   1.525  1.00  0.00     0.138 A 
ATOM     23  C   UNL     1     -24.539 -29.359  -0.334  1.00  0.00     0.344 A 
ATOM     24  C   UNL     1     -23.673 -30.971   1.865  1.00  0.00     0.060 A 
ATOM     25  O   UNL     1     -25.264 -30.463   0.107  1.00  0.00    -0.422 OA
ATOM     26  O   UNL     1     -24.926 -28.753  -1.325  1.00  0.00    -0.246 OA
ATOM     27  C   UNL     1     -23.244 -31.879   2.845  1.00  0.00     0.016 A 
ATOM     28  C   UNL     1     -24.822 -31.286   1.153  1.00  0.00     0.142 A 
ATOM     29  C   UNL     1     -23.982 -33.040   3.114  1.00  0.00     0.001 A 
ATOM     30  C   UNL     1     -25.570 -32.436   1.409  1.00  0.00     0.048 A 
ATOM     31  C   UNL     1     -25.148 -33.313   2.402  1.00  0.00     0.004 A 
BRANCH  22  32
ATOM     32  O   UNL     1     -21.920 -29.347   2.328  1.00  0.00    -0.507 OA
ATOM     33  H   UNL     1     -22.240 -29.259   3.243  1.00  0.00     0.293 HD
ENDBRANCH  22  32
ENDBRANCH   1  21
TORSDOF 5
ENDMDL
MODEL 13
REMARK VINA RESULT:    -5.198      2.520      4.584
REMARK INTER + INTRA:          -6.669
REMARK INTER:                  -6.413
REMARK INTRA:                  -0.256
REMARK UNBOUND:                -0.255
REMARK SMILES O=c1oc2ccccc2c(O)c1C(c1ccccc1)c1c(O)c2ccccc2oc1=O
REMARK SMILES IDX 13 1 12 2 1 3 2 4 3 5 4 6 10 7 5 8 9 9 6 10 8 11 7 12 11 13
REMARK SMILES IDX 14 15 15 16 19 17 16 18 18 19 17 20 20 21 21 22 30 23 23 24
REMARK SMILES IDX 29 25 31 26 24 27 28 28 25 29 27 30 26 31 22 32
REMARK H PARENT 11 14 22 33
ROOT
ATOM      1  C   UNL     1     -22.426 -24.549   2.346  1.00  0.00     0.102 C 
ENDROOT
BRANCH   1   2
ATOM      2  C   UNL     1     -22.298 -23.020   2.332  1.00  0.00     0.092 A 
ATOM      3  O   UNL     1     -19.918 -23.093   2.389  1.00  0.00    -0.246 OA
ATOM      4  C   UNL     1     -20.943 -22.420   2.391  1.00  0.00     0.344 A 
ATOM      5  O   UNL     1     -20.854 -21.037   2.489  1.00  0.00    -0.422 OA
ATOM      6  C   UNL     1     -21.983 -20.211   2.400  1.00  0.00     0.142 A 
ATOM      7  C   UNL     1     -23.379 -22.214   2.315  1.00  0.00     0.138 A 
ATOM      8  C   UNL     1     -21.755 -18.834   2.401  1.00  0.00     0.048 A 
ATOM      9  C   UNL     1     -23.257 -20.755   2.284  1.00  0.00     0.060 A 
ATOM     10  C   UNL     1     -22.834 -17.967   2.264  1.00  0.00     0.004 A 
ATOM     11  C   UNL     1     -24.330 -19.869   2.119  1.00  0.00     0.016 A 
ATOM     12  C   UNL     1     -24.120 -18.484   2.116  1.00  0.00     0.001 A 
BRANCH   7  13
ATOM     13  O   UNL     1     -24.655 -22.745   2.337  1.00  0.00    -0.507 OA
ATOM     14  H   UNL     1     -24.595 -23.692   2.545  1.00  0.00     0.293 HD
ENDBRANCH   7  13
ENDBRANCH   1   2
BRANCH   1  15
ATOM     15  C   UNL     1     -22.964 -25.117   3.667  1.00  0.00    -0.035 A 
ATOM     16  C   UNL     1     -23.354 -24.232   4.690  1.00  0.00     0.005 A 
ATOM     17  C   UNL     1     -23.083 -26.496   3.902  1.00  0.00     0.005 A 
ATOM     18  C   UNL     1     -23.862 -24.713   5.900  1.00  0.00     0.000 A 
ATOM     19  C   UNL     1     -23.589 -26.974   5.114  1.00  0.00     0.000 A 
ATOM     20  C   UNL     1     -23.980 -26.084   6.110  1.00  0.00     0.000 A 
ENDBRANCH   1  15
BRANCH   1  21
ATOM     21  C   UNL     1     -22.950 -25.170   1.049  1.00  0.00     0.092 A 
ATOM     22  C   UNL     1     -22.121 -25.408   0.012  1.00  0.00     0.138 A 
ATOM     23  C   UNL     1     -24.389 -25.541   0.934  1.00  0.00     0.344 A 
ATOM     24  C   UNL     1     -22.595 -25.979  -1.251  1.00  0.00     0.060 A 
ATOM     25  O   UNL     1     -24.776 -26.221  -0.218  1.00  0.00    -0.422 OA
ATOM     26  O   UNL     1     -25.223 -25.325   1.803  1.00  0.00    -0.246 OA
ATOM     27  C   UNL     1     -21.815 -26.113  -2.409  1.00  0.00     0.016 A 
ATOM     28  C   UNL     1     -23.917 -26.397  -1.312  1.00  0.00     0.142 A 
ATOM     29  C   UNL     1     -22.351 -26.690  -3.568  1.00  0.00     0.001 A 
ATOM     30  C   UNL     1     -24.467 -26.975  -2.457  1.00  0.00     0.048 A 
ATOM     31  C   UNL     1     -23.674 -27.128  -3.588  1.00  0.00     0.004 A 
BRANCH  22  32
ATOM     32  O   UNL     1     -20.770 -25.121   0.112  1.00  0.00    -0.507 OA
ATOM     33  H   UNL     1     -20.656 -24.381   0.733  1.00  0.00     0.293 HD
ENDBRANCH  22  32
ENDBRANCH   1  21
TORSDOF 5
ENDMDL
MODEL 14
REMARK VINA RESULT:    -5.176      2.988      4.765
REMARK INTER + INTRA:          -6.642
REMARK INTER:                  -6.473
REMARK INTRA:                  -0.169
REMARK UNBOUND:                -0.255
REMARK SMILES O=c1oc2ccccc2c(O)c1C(c1ccccc1)c1c(O)c2ccccc2oc1=O
REMARK SMILES IDX 13 1 12 2 1 3 2 4 3 5 4 6 10 7 5 8 9 9 6 10 8 11 7 12 11 13
REMARK SMILES IDX 14 15 15 16 19 17 16 18 18 19 17 20 20 21 21 22 30 23 23 24
REMARK SMILES IDX 29 25 31 26 24 27 28 28 25 29 27 30 26 31 22 32
REMARK H PARENT 11 14 22 33
ROOT
ATOM      1  C   UNL     1     -23.091 -27.254   1.096  1.00  0.00     0.102 C 
ENDROOT
BRANCH   1   2
ATOM      2  C   UNL     1     -21.595 -26.941   0.968  1.00  0.00     0.092 A 
ATOM      3  O   UNL     1     -20.975 -29.237   1.114  1.00  0.00    -0.246 OA
ATOM      4  C   UNL     1     -20.628 -28.065   1.028  1.00  0.00     0.344 A 
ATOM      5  O   UNL     1     -19.274 -27.751   1.021  1.00  0.00    -0.422 OA
ATOM      6  C   UNL     1     -18.815 -26.441   0.828  1.00  0.00     0.142 A 
ATOM      7  C   UNL     1     -21.136 -25.679   0.850  1.00  0.00     0.138 A 
ATOM      8  C   UNL     1     -17.433 -26.268   0.731  1.00  0.00     0.048 A 
ATOM      9  C   UNL     1     -19.709 -25.383   0.710  1.00  0.00     0.060 A 
ATOM     10  C   UNL     1     -16.924 -24.996   0.490  1.00  0.00     0.004 A 
ATOM     11  C   UNL     1     -19.181 -24.113   0.440  1.00  0.00     0.016 A 
ATOM     12  C   UNL     1     -17.798 -23.920   0.336  1.00  0.00     0.001 A 
BRANCH   7  13
ATOM     13  O   UNL     1     -22.009 -24.607   0.868  1.00  0.00    -0.507 OA
ATOM     14  H   UNL     1     -21.594 -23.875   1.353  1.00  0.00     0.293 HD
ENDBRANCH   7  13
ENDBRANCH   1   2
BRANCH   1  15
ATOM     15  C   UNL     1     -23.851 -26.293   2.020  1.00  0.00    -0.035 A 
ATOM     16  C   UNL     1     -23.571 -26.297   3.400  1.00  0.00     0.005 A 
ATOM     17  C   UNL     1     -24.827 -25.401   1.545  1.00  0.00     0.005 A 
ATOM     18  C   UNL     1     -24.233 -25.427   4.270  1.00  0.00     0.000 A 
ATOM     19  C   UNL     1     -25.489 -24.534   2.417  1.00  0.00     0.000 A 
ATOM     20  C   UNL     1     -25.190 -24.544   3.777  1.00  0.00     0.000 A 
ENDBRANCH   1  15
BRANCH   1  21
ATOM     21  C   UNL     1     -23.782 -27.671  -0.205  1.00  0.00     0.092 A 
ATOM     22  C   UNL     1     -24.244 -28.926  -0.370  1.00  0.00     0.138 A 
ATOM     23  C   UNL     1     -23.971 -26.672  -1.296  1.00  0.00     0.344 A 
ATOM     24  C   UNL     1     -24.889 -29.363  -1.612  1.00  0.00     0.060 A 
ATOM     25  O   UNL     1     -24.721 -27.075  -2.398  1.00  0.00    -0.422 OA
ATOM     26  O   UNL     1     -23.548 -25.524  -1.255  1.00  0.00    -0.246 OA
ATOM     27  C   UNL     1     -25.257 -30.687  -1.897  1.00  0.00     0.016 A 
ATOM     28  C   UNL     1     -25.133 -28.402  -2.583  1.00  0.00     0.142 A 
ATOM     29  C   UNL     1     -25.887 -31.007  -3.107  1.00  0.00     0.001 A 
ATOM     30  C   UNL     1     -25.761 -28.703  -3.792  1.00  0.00     0.048 A 
ATOM     31  C   UNL     1     -26.146 -30.014  -4.050  1.00  0.00     0.004 A 
BRANCH  22  32
ATOM     32  O   UNL     1     -24.128 -29.858   0.647  1.00  0.00    -0.507 OA
ATOM     33  H   UNL     1     -25.002 -29.977   1.057  1.00  0.00     0.293 HD
ENDBRANCH  22  32
ENDBRANCH   1  21
TORSDOF 5
ENDMDL
MODEL 15
REMARK VINA RESULT:    -5.172      3.416      5.940
REMARK INTER + INTRA:          -6.637
REMARK INTER:                  -6.681
REMARK INTRA:                   0.044
REMARK UNBOUND:                -0.255
REMARK SMILES O=c1oc2ccccc2c(O)c1C(c1ccccc1)c1c(O)c2ccccc2oc1=O
REMARK SMILES IDX 13 1 12 2 1 3 2 4 3 5 4 6 10 7 5 8 9 9 6 10 8 11 7 12 11 13
REMARK SMILES IDX 14 15 15 16 19 17 16 18 18 19 17 20 20 21 21 22 30 23 23 24
REMARK SMILES IDX 29 25 31 26 24 27 28 28 25 29 27 30 26 31 22 32
REMARK H PARENT 11 14 22 33
ROOT
ATOM      1  C   UNL     1     -23.843 -28.070  -3.987  1.00  0.00     0.102 C 
ENDROOT
BRANCH   1   2
ATOM      2  C   UNL     1     -23.715 -28.078  -2.459  1.00  0.00     0.092 A 
ATOM      3  O   UNL     1     -22.902 -30.317  -2.413  1.00  0.00    -0.246 OA
ATOM      4  C   UNL     1     -23.248 -29.318  -1.792  1.00  0.00     0.344 A 
ATOM      5  O   UNL     1     -23.245 -29.341  -0.403  1.00  0.00    -0.422 OA
ATOM      6  C   UNL     1     -23.537 -28.202   0.361  1.00  0.00     0.142 A 
ATOM      7  C   UNL     1     -24.058 -27.012  -1.709  1.00  0.00     0.138 A 
ATOM      8  C   UNL     1     -23.393 -28.320   1.744  1.00  0.00     0.048 A 
ATOM      9  C   UNL     1     -23.919 -27.014  -0.251  1.00  0.00     0.060 A 
ATOM     10  C   UNL     1     -23.622 -27.207   2.547  1.00  0.00     0.004 A 
ATOM     11  C   UNL     1     -24.118 -25.895   0.570  1.00  0.00     0.016 A 
ATOM     12  C   UNL     1     -23.976 -25.993   1.960  1.00  0.00     0.001 A 
BRANCH   7  13
ATOM     13  O   UNL     1     -24.568 -25.870  -2.298  1.00  0.00    -0.507 OA
ATOM     14  H   UNL     1     -25.519 -25.821  -2.109  1.00  0.00     0.293 HD
ENDBRANCH   7  13
ENDBRANCH   1   2
BRANCH   1  15
ATOM     15  C   UNL     1     -22.565 -27.633  -4.718  1.00  0.00    -0.035 A 
ATOM     16  C   UNL     1     -22.669 -27.000  -5.971  1.00  0.00     0.005 A 
ATOM     17  C   UNL     1     -21.283 -27.843  -4.186  1.00  0.00     0.005 A 
ATOM     18  C   UNL     1     -21.530 -26.576  -6.658  1.00  0.00     0.000 A 
ATOM     19  C   UNL     1     -20.144 -27.419  -4.876  1.00  0.00     0.000 A 
ATOM     20  C   UNL     1     -20.267 -26.784  -6.109  1.00  0.00     0.000 A 
ENDBRANCH   1  15
BRANCH   1  21
ATOM     21  C   UNL     1     -24.623 -29.247  -4.581  1.00  0.00     0.092 A 
ATOM     22  C   UNL     1     -25.955 -29.354  -4.401  1.00  0.00     0.138 A 
ATOM     23  C   UNL     1     -23.908 -30.276  -5.389  1.00  0.00     0.344 A 
ATOM     24  C   UNL     1     -26.726 -30.480  -4.934  1.00  0.00     0.060 A 
ATOM     25  O   UNL     1     -24.692 -31.247  -6.009  1.00  0.00    -0.422 OA
ATOM     26  O   UNL     1     -22.698 -30.287  -5.569  1.00  0.00    -0.246 OA
ATOM     27  C   UNL     1     -28.080 -30.722  -4.659  1.00  0.00     0.016 A 
ATOM     28  C   UNL     1     -26.063 -31.383  -5.754  1.00  0.00     0.142 A 
ATOM     29  C   UNL     1     -28.740 -31.816  -5.232  1.00  0.00     0.001 A 
ATOM     30  C   UNL     1     -26.706 -32.477  -6.335  1.00  0.00     0.048 A 
ATOM     31  C   UNL     1     -28.055 -32.689  -6.075  1.00  0.00     0.004 A 
BRANCH  22  32
ATOM     32  O   UNL     1     -26.649 -28.384  -3.699  1.00  0.00    -0.507 OA
ATOM     33  H   UNL     1     -27.583 -28.415  -3.970  1.00  0.00     0.293 HD
ENDBRANCH  22  32
ENDBRANCH   1  21
TORSDOF 5
ENDMDL
MODEL 16
REMARK VINA RESULT:    -5.156      2.478      5.707
REMARK INTER + INTRA:          -6.617
REMARK INTER:                  -6.707
REMARK INTRA:                   0.090
REMARK UNBOUND:                -0.255
REMARK SMILES O=c1oc2ccccc2c(O)c1C(c1ccccc1)c1c(O)c2ccccc2oc1=O
REMARK SMILES IDX 13 1 12 2 1 3 2 4 3 5 4 6 10 7 5 8 9 9 6 10 8 11 7 12 11 13
REMARK SMILES IDX 14 15 15 16 19 17 16 18 18 19 17 20 20 21 21 22 30 23 23 24
REMARK SMILES IDX 29 25 31 26 24 27 28 28 25 29 27 30 26 31 22 32
REMARK H PARENT 11 14 22 33
ROOT
ATOM      1  C   UNL     1     -24.247 -28.288  -0.820  1.00  0.00     0.102 C 
ENDROOT
BRANCH   1   2
ATOM      2  C   UNL     1     -23.739 -29.712  -0.563  1.00  0.00     0.092 A 
ATOM      3  O   UNL     1     -21.456 -29.032  -0.563  1.00  0.00    -0.246 OA
ATOM      4  C   UNL     1     -22.276 -29.941  -0.489  1.00  0.00     0.344 A 
ATOM      5  O   UNL     1     -21.834 -31.253  -0.367  1.00  0.00    -0.422 OA
ATOM      6  C   UNL     1     -22.721 -32.322  -0.182  1.00  0.00     0.142 A 
ATOM      7  C   UNL     1     -24.580 -30.760  -0.452  1.00  0.00     0.138 A 
ATOM      8  C   UNL     1     -22.153 -33.578   0.039  1.00  0.00     0.048 A 
ATOM      9  C   UNL     1     -24.095 -32.117  -0.189  1.00  0.00     0.060 A 
ATOM     10  C   UNL     1     -22.984 -34.667   0.278  1.00  0.00     0.004 A 
ATOM     11  C   UNL     1     -24.919 -33.219   0.081  1.00  0.00     0.016 A 
ATOM     12  C   UNL     1     -24.367 -34.486   0.308  1.00  0.00     0.001 A 
BRANCH   7  13
ATOM     13  O   UNL     1     -25.944 -30.588  -0.592  1.00  0.00    -0.507 OA
ATOM     14  H   UNL     1     -26.182 -29.704  -0.267  1.00  0.00     0.293 HD
ENDBRANCH   7  13
ENDBRANCH   1   2
BRANCH   1  15
ATOM     15  C   UNL     1     -24.133 -27.357   0.395  1.00  0.00    -0.035 A 
ATOM     16  C   UNL     1     -24.671 -26.058   0.323  1.00  0.00     0.005 A 
ATOM     17  C   UNL     1     -23.504 -27.748   1.589  1.00  0.00     0.005 A 
ATOM     18  C   UNL     1     -24.598 -25.188   1.413  1.00  0.00     0.000 A 
ATOM     19  C   UNL     1     -23.430 -26.875   2.678  1.00  0.00     0.000 A 
ATOM     20  C   UNL     1     -23.979 -25.599   2.591  1.00  0.00     0.000 A 
ENDBRANCH   1  15
BRANCH   1  21
ATOM     21  C   UNL     1     -23.883 -27.704  -2.188  1.00  0.00     0.092 A 
ATOM     22  C   UNL     1     -24.578 -28.045  -3.292  1.00  0.00     0.138 A 
ATOM     23  C   UNL     1     -22.763 -26.727  -2.302  1.00  0.00     0.344 A 
ATOM     24  C   UNL     1     -24.240 -27.524  -4.618  1.00  0.00     0.060 A 
ATOM     25  O   UNL     1     -22.566 -26.135  -3.547  1.00  0.00    -0.422 OA
ATOM     26  O   UNL     1     -22.049 -26.392  -1.366  1.00  0.00    -0.246 OA
ATOM     27  C   UNL     1     -24.829 -27.951  -5.818  1.00  0.00     0.016 A 
ATOM     28  C   UNL     1     -23.252 -26.553  -4.696  1.00  0.00     0.142 A 
ATOM     29  C   UNL     1     -24.454 -27.379  -7.041  1.00  0.00     0.001 A 
ATOM     30  C   UNL     1     -22.867 -25.971  -5.904  1.00  0.00     0.048 A 
ATOM     31  C   UNL     1     -23.480 -26.384  -7.082  1.00  0.00     0.004 A 
BRANCH  22  32
ATOM     32  O   UNL     1     -25.656 -28.910  -3.204  1.00  0.00    -0.507 OA
ATOM     33  H   UNL     1     -25.565 -29.588  -3.895  1.00  0.00     0.293 HD
ENDBRANCH  22  32
ENDBRANCH   1  21
TORSDOF 5
ENDMDL
MODEL 17
REMARK VINA RESULT:    -5.155      5.697      9.560
REMARK INTER + INTRA:          -6.616
REMARK INTER:                  -6.756
REMARK INTRA:                   0.139
REMARK UNBOUND:                -0.255
REMARK SMILES O=c1oc2ccccc2c(O)c1C(c1ccccc1)c1c(O)c2ccccc2oc1=O
REMARK SMILES IDX 13 1 12 2 1 3 2 4 3 5 4 6 10 7 5 8 9 9 6 10 8 11 7 12 11 13
REMARK SMILES IDX 14 15 15 16 19 17 16 18 18 19 17 20 20 21 21 22 30 23 23 24
REMARK SMILES IDX 29 25 31 26 24 27 28 28 25 29 27 30 26 31 22 32
REMARK H PARENT 11 14 22 33
ROOT
ATOM      1  C   UNL     1     -28.698 -22.932   2.688  1.00  0.00     0.102 C 
ENDROOT
BRANCH   1   2
ATOM      2  C   UNL     1     -27.184 -23.151   2.569  1.00  0.00     0.092 A 
ATOM      3  O   UNL     1     -26.677 -21.226   3.877  1.00  0.00    -0.246 OA
ATOM      4  C   UNL     1     -26.273 -22.170   3.207  1.00  0.00     0.344 A 
ATOM      5  O   UNL     1     -24.909 -22.324   2.994  1.00  0.00    -0.422 OA
ATOM      6  C   UNL     1     -24.382 -23.435   2.320  1.00  0.00     0.142 A 
ATOM      7  C   UNL     1     -26.665 -24.177   1.865  1.00  0.00     0.138 A 
ATOM      8  C   UNL     1     -22.991 -23.534   2.265  1.00  0.00     0.048 A 
ATOM      9  C   UNL     1     -25.220 -24.395   1.766  1.00  0.00     0.060 A 
ATOM     10  C   UNL     1     -22.413 -24.640   1.651  1.00  0.00     0.004 A 
ATOM     11  C   UNL     1     -24.622 -25.518   1.176  1.00  0.00     0.016 A 
ATOM     12  C   UNL     1     -23.228 -25.636   1.114  1.00  0.00     0.001 A 
BRANCH   7  13
ATOM     13  O   UNL     1     -27.489 -25.063   1.196  1.00  0.00    -0.507 OA
ATOM     14  H   UNL     1     -27.467 -25.917   1.658  1.00  0.00     0.293 HD
ENDBRANCH   7  13
ENDBRANCH   1   2
BRANCH   1  15
ATOM     15  C   UNL     1     -29.340 -22.325   1.433  1.00  0.00    -0.035 A 
ATOM     16  C   UNL     1     -30.632 -21.772   1.517  1.00  0.00     0.005 A 
ATOM     17  C   UNL     1     -28.689 -22.301   0.188  1.00  0.00     0.005 A 
ATOM     18  C   UNL     1     -31.243 -21.199   0.399  1.00  0.00     0.000 A 
ATOM     19  C   UNL     1     -29.303 -21.729  -0.929  1.00  0.00     0.000 A 
ATOM     20  C   UNL     1     -30.576 -21.176  -0.823  1.00  0.00     0.000 A 
ENDBRANCH   1  15
BRANCH   1  21
ATOM     21  C   UNL     1     -29.464 -24.053   3.397  1.00  0.00     0.092 A 
ATOM     22  C   UNL     1     -30.122 -24.994   2.691  1.00  0.00     0.138 A 
ATOM     23  C   UNL     1     -29.464 -24.122   4.886  1.00  0.00     0.344 A 
ATOM     24  C   UNL     1     -30.884 -26.064   3.339  1.00  0.00     0.060 A 
ATOM     25  O   UNL     1     -30.066 -25.235   5.466  1.00  0.00    -0.422 OA
ATOM     26  O   UNL     1     -28.932 -23.290   5.610  1.00  0.00    -0.246 OA
ATOM     27  C   UNL     1     -31.704 -26.981   2.665  1.00  0.00     0.016 A 
ATOM     28  C   UNL     1     -30.805 -26.165   4.721  1.00  0.00     0.142 A 
ATOM     29  C   UNL     1     -32.381 -27.986   3.369  1.00  0.00     0.001 A 
ATOM     30  C   UNL     1     -31.470 -27.160   5.438  1.00  0.00     0.048 A 
ATOM     31  C   UNL     1     -32.257 -28.079   4.754  1.00  0.00     0.004 A 
BRANCH  22  32
ATOM     32  O   UNL     1     -30.094 -24.982   1.307  1.00  0.00    -0.507 OA
ATOM     33  H   UNL     1     -30.752 -24.340   0.989  1.00  0.00     0.293 HD
ENDBRANCH  22  32
ENDBRANCH   1  21
TORSDOF 5
ENDMDL
MODEL 18
REMARK VINA RESULT:    -5.139      3.229      4.742
REMARK INTER + INTRA:          -6.596
REMARK INTER:                  -6.265
REMARK INTRA:                  -0.331
REMARK UNBOUND:                -0.255
REMARK SMILES O=c1oc2ccccc2c(O)c1C(c1ccccc1)c1c(O)c2ccccc2oc1=O
REMARK SMILES IDX 13 1 12 2 1 3 2 4 3 5 4 6 10 7 5 8 9 9 6 10 8 11 7 12 11 13
REMARK SMILES IDX 14 15 15 16 19 17 16 18 18 19 17 20 20 21 21 22 30 23 23 24
REMARK SMILES IDX 29 25 31 26 24 27 28 28 25 29 27 30 26 31 22 32
REMARK H PARENT 11 14 22 33
ROOT
ATOM      1  C   UNL     1     -23.120 -28.251  -2.298  1.00  0.00     0.102 C 
ENDROOT
BRANCH   1   2
ATOM      2  C   UNL     1     -23.415 -27.533  -0.975  1.00  0.00     0.092 A 
ATOM      3  O   UNL     1     -24.331 -25.626  -2.070  1.00  0.00    -0.246 OA
ATOM      4  C   UNL     1     -24.009 -26.174  -1.022  1.00  0.00     0.344 A 
ATOM      5  O   UNL     1     -24.166 -25.497   0.181  1.00  0.00    -0.422 OA
ATOM      6  C   UNL     1     -23.906 -26.106   1.417  1.00  0.00     0.142 A 
ATOM      7  C   UNL     1     -23.106 -28.079   0.218  1.00  0.00     0.138 A 
ATOM      8  C   UNL     1     -24.206 -25.362   2.559  1.00  0.00     0.048 A 
ATOM      9  C   UNL     1     -23.404 -27.401   1.481  1.00  0.00     0.060 A 
ATOM     10  C   UNL     1     -24.015 -25.934   3.812  1.00  0.00     0.004 A 
ATOM     11  C   UNL     1     -23.244 -27.974   2.751  1.00  0.00     0.016 A 
ATOM     12  C   UNL     1     -23.542 -27.243   3.908  1.00  0.00     0.001 A 
BRANCH   7  13
ATOM     13  O   UNL     1     -22.482 -29.311   0.290  1.00  0.00    -0.507 OA
ATOM     14  H   UNL     1     -22.407 -29.674  -0.608  1.00  0.00     0.293 HD
ENDBRANCH   7  13
ENDBRANCH   1   2
BRANCH   1  15
ATOM     15  C   UNL     1     -21.730 -28.899  -2.358  1.00  0.00    -0.035 A 
ATOM     16  C   UNL     1     -20.592 -28.120  -2.077  1.00  0.00     0.005 A 
ATOM     17  C   UNL     1     -21.541 -30.251  -2.690  1.00  0.00     0.005 A 
ATOM     18  C   UNL     1     -19.312 -28.679  -2.108  1.00  0.00     0.000 A 
ATOM     19  C   UNL     1     -20.260 -30.807  -2.723  1.00  0.00     0.000 A 
ATOM     20  C   UNL     1     -19.148 -30.024  -2.430  1.00  0.00     0.000 A 
ENDBRANCH   1  15
BRANCH   1  21
ATOM     21  C   UNL     1     -24.291 -29.045  -2.883  1.00  0.00     0.092 A 
ATOM     22  C   UNL     1     -24.891 -28.651  -4.024  1.00  0.00     0.138 A 
ATOM     23  C   UNL     1     -24.761 -30.283  -2.198  1.00  0.00     0.344 A 
ATOM     24  C   UNL     1     -26.030 -29.375  -4.596  1.00  0.00     0.060 A 
ATOM     25  O   UNL     1     -25.740 -31.030  -2.847  1.00  0.00    -0.422 OA
ATOM     26  O   UNL     1     -24.308 -30.693  -1.137  1.00  0.00    -0.246 OA
ATOM     27  C   UNL     1     -26.784 -28.936  -5.694  1.00  0.00     0.016 A 
ATOM     28  C   UNL     1     -26.401 -30.570  -3.995  1.00  0.00     0.142 A 
ATOM     29  C   UNL     1     -27.847 -29.707  -6.184  1.00  0.00     0.001 A 
ATOM     30  C   UNL     1     -27.454 -31.352  -4.471  1.00  0.00     0.048 A 
ATOM     31  C   UNL     1     -28.175 -30.918  -5.577  1.00  0.00     0.004 A 
BRANCH  22  32
ATOM     32  O   UNL     1     -24.440 -27.535  -4.707  1.00  0.00    -0.507 OA
ATOM     33  H   UNL     1     -24.463 -26.773  -4.103  1.00  0.00     0.293 HD
ENDBRANCH  22  32
ENDBRANCH   1  21
TORSDOF 5
ENDMDL
MODEL 19
REMARK VINA RESULT:    -5.133      2.767      7.490
REMARK INTER + INTRA:          -6.589
REMARK INTER:                  -6.922
REMARK INTRA:                   0.333
REMARK UNBOUND:                -0.255
REMARK SMILES O=c1oc2ccccc2c(O)c1C(c1ccccc1)c1c(O)c2ccccc2oc1=O
REMARK SMILES IDX 13 1 12 2 1 3 2 4 3 5 4 6 10 7 5 8 9 9 6 10 8 11 7 12 11 13
REMARK SMILES IDX 14 15 15 16 19 17 16 18 18 19 17 20 20 21 21 22 30 23 23 24
REMARK SMILES IDX 29 25 31 26 24 27 28 28 25 29 27 30 26 31 22 32
REMARK H PARENT 11 14 22 33
ROOT
ATOM      1  C   UNL     1     -24.306 -25.372   2.723  1.00  0.00     0.102 C 
ENDROOT
BRANCH   1   2
ATOM      2  C   UNL     1     -23.568 -25.604   1.399  1.00  0.00     0.092 A 
ATOM      3  O   UNL     1     -21.423 -25.489   2.431  1.00  0.00    -0.246 OA
ATOM      4  C   UNL     1     -22.084 -25.604   1.405  1.00  0.00     0.344 A 
ATOM      5  O   UNL     1     -21.435 -25.705   0.180  1.00  0.00    -0.422 OA
ATOM      6  C   UNL     1     -22.131 -25.935  -1.014  1.00  0.00     0.142 A 
ATOM      7  C   UNL     1     -24.225 -25.758   0.232  1.00  0.00     0.138 A 
ATOM      8  C   UNL     1     -21.362 -26.127  -2.163  1.00  0.00     0.048 A 
ATOM      9  C   UNL     1     -23.520 -25.997  -1.029  1.00  0.00     0.060 A 
ATOM     10  C   UNL     1     -21.998 -26.409  -3.367  1.00  0.00     0.004 A 
ATOM     11  C   UNL     1     -24.145 -26.309  -2.245  1.00  0.00     0.016 A 
ATOM     12  C   UNL     1     -23.389 -26.508  -3.407  1.00  0.00     0.001 A 
BRANCH   7  13
ATOM     13  O   UNL     1     -25.605 -25.686   0.186  1.00  0.00    -0.507 OA
ATOM     14  H   UNL     1     -25.940 -25.544   1.086  1.00  0.00     0.293 HD
ENDBRANCH   7  13
ENDBRANCH   1   2
BRANCH   1  15
ATOM     15  C   UNL     1     -23.871 -26.316   3.853  1.00  0.00    -0.035 A 
ATOM     16  C   UNL     1     -23.383 -27.597   3.532  1.00  0.00     0.005 A 
ATOM     17  C   UNL     1     -23.944 -25.955   5.208  1.00  0.00     0.005 A 
ATOM     18  C   UNL     1     -22.965 -28.478   4.532  1.00  0.00     0.000 A 
ATOM     19  C   UNL     1     -23.527 -26.838   6.207  1.00  0.00     0.000 A 
ATOM     20  C   UNL     1     -23.036 -28.096   5.870  1.00  0.00     0.000 A 
ENDBRANCH   1  15
BRANCH   1  21
ATOM     21  C   UNL     1     -24.544 -23.904   3.087  1.00  0.00     0.092 A 
ATOM     22  C   UNL     1     -25.728 -23.312   2.833  1.00  0.00     0.138 A 
ATOM     23  C   UNL     1     -23.463 -23.122   3.753  1.00  0.00     0.344 A 
ATOM     24  C   UNL     1     -25.979 -21.903   3.147  1.00  0.00     0.060 A 
ATOM     25  O   UNL     1     -23.785 -21.835   4.176  1.00  0.00    -0.422 OA
ATOM     26  O   UNL     1     -22.343 -23.560   3.984  1.00  0.00    -0.246 OA
ATOM     27  C   UNL     1     -27.133 -21.196   2.776  1.00  0.00     0.016 A 
ATOM     28  C   UNL     1     -24.996 -21.213   3.842  1.00  0.00     0.142 A 
ATOM     29  C   UNL     1     -27.294 -19.852   3.138  1.00  0.00     0.001 A 
ATOM     30  C   UNL     1     -25.140 -19.876   4.213  1.00  0.00     0.048 A 
ATOM     31  C   UNL     1     -26.301 -19.195   3.863  1.00  0.00     0.004 A 
BRANCH  22  32
ATOM     32  O   UNL     1     -26.765 -24.030   2.263  1.00  0.00    -0.507 OA
ATOM     33  H   UNL     1     -26.419 -24.887   1.961  1.00  0.00     0.293 HD
ENDBRANCH  22  32
ENDBRANCH   1  21
TORSDOF 5
ENDMDL
MODEL 20
REMARK VINA RESULT:    -5.115      1.988      6.634
REMARK INTER + INTRA:          -6.567
REMARK INTER:                  -6.553
REMARK INTRA:                  -0.014
REMARK UNBOUND:                -0.255
REMARK SMILES O=c1oc2ccccc2c(O)c1C(c1ccccc1)c1c(O)c2ccccc2oc1=O
REMARK SMILES IDX 13 1 12 2 1 3 2 4 3 5 4 6 10 7 5 8 9 9 6 10 8 11 7 12 11 13
REMARK SMILES IDX 14 15 15 16 19 17 16 18 18 19 17 20 20 21 21 22 30 23 23 24
REMARK SMILES IDX 29 25 31 26 24 27 28 28 25 29 27 30 26 31 22 32
REMARK H PARENT 11 14 22 33
ROOT
ATOM      1  C   UNL     1     -23.555 -28.466  -2.474  1.00  0.00     0.102 C 
ENDROOT
BRANCH   1   2
ATOM      2  C   UNL     1     -22.274 -28.212  -3.279  1.00  0.00     0.092 A 
ATOM      3  O   UNL     1     -20.897 -29.303  -1.669  1.00  0.00    -0.246 OA
ATOM      4  C   UNL     1     -20.981 -28.673  -2.718  1.00  0.00     0.344 A 
ATOM      5  O   UNL     1     -19.822 -28.336  -3.408  1.00  0.00    -0.422 OA
ATOM      6  C   UNL     1     -19.859 -27.703  -4.658  1.00  0.00     0.142 A 
ATOM      7  C   UNL     1     -22.288 -27.544  -4.450  1.00  0.00     0.138 A 
ATOM      8  C   UNL     1     -18.635 -27.515  -5.303  1.00  0.00     0.048 A 
ATOM      9  C   UNL     1     -21.067 -27.317  -5.226  1.00  0.00     0.060 A 
ATOM     10  C   UNL     1     -18.615 -26.937  -6.568  1.00  0.00     0.004 A 
ATOM     11  C   UNL     1     -21.033 -26.761  -6.513  1.00  0.00     0.016 A 
ATOM     12  C   UNL     1     -19.815 -26.568  -7.176  1.00  0.00     0.001 A 
BRANCH   7  13
ATOM     13  O   UNL     1     -23.469 -27.036  -4.959  1.00  0.00    -0.507 OA
ATOM     14  H   UNL     1     -23.327 -26.790  -5.887  1.00  0.00     0.293 HD
ENDBRANCH   7  13
ENDBRANCH   1   2
BRANCH   1  15
ATOM     15  C   UNL     1     -24.009 -29.933  -2.472  1.00  0.00    -0.035 A 
ATOM     16  C   UNL     1     -25.264 -30.266  -1.928  1.00  0.00     0.005 A 
ATOM     17  C   UNL     1     -23.216 -30.969  -2.991  1.00  0.00     0.005 A 
ATOM     18  C   UNL     1     -25.716 -31.588  -1.921  1.00  0.00     0.000 A 
ATOM     19  C   UNL     1     -23.669 -32.290  -2.981  1.00  0.00     0.000 A 
ATOM     20  C   UNL     1     -24.918 -32.599  -2.450  1.00  0.00     0.000 A 
ENDBRANCH   1  15
BRANCH   1  21
ATOM     21  C   UNL     1     -23.657 -27.697  -1.154  1.00  0.00     0.092 A 
ATOM     22  C   UNL     1     -23.373 -28.298   0.019  1.00  0.00     0.138 A 
ATOM     23  C   UNL     1     -24.052 -26.260  -1.163  1.00  0.00     0.344 A 
ATOM     24  C   UNL     1     -23.484 -27.597   1.301  1.00  0.00     0.060 A 
ATOM     25  O   UNL     1     -23.999 -25.583   0.053  1.00  0.00    -0.422 OA
ATOM     26  O   UNL     1     -24.370 -25.643  -2.172  1.00  0.00    -0.246 OA
ATOM     27  C   UNL     1     -23.344 -28.205   2.558  1.00  0.00     0.016 A 
ATOM     28  C   UNL     1     -23.770 -26.239   1.270  1.00  0.00     0.142 A 
ATOM     29  C   UNL     1     -23.449 -27.449   3.732  1.00  0.00     0.001 A 
ATOM     30  C   UNL     1     -23.875 -25.470   2.429  1.00  0.00     0.048 A 
ATOM     31  C   UNL     1     -23.706 -26.080   3.667  1.00  0.00     0.004 A 
BRANCH  22  32
ATOM     32  O   UNL     1     -22.954 -29.617   0.050  1.00  0.00    -0.507 OA
ATOM     33  H   UNL     1     -22.216 -29.692   0.680  1.00  0.00     0.293 HD
ENDBRANCH  22  32
ENDBRANCH   1  21
TORSDOF 5
ENDMDL
