MODEL 1
REMARK VINA RESULT:    -5.114      0.000      0.000
REMARK INTER + INTRA:          -7.096
REMARK INTER:                  -6.459
REMARK INTRA:                  -0.637
REMARK UNBOUND:                -0.637
REMARK SMILES CC(=O)C[C@H](c1ccccc1)c1c(O)c2ccccc2oc1=O
REMARK SMILES IDX 5 1 4 2 2 3 3 4 1 5 6 6 7 7 11 8 8 9 10 10 9 11 12 12 13 13
REMARK SMILES IDX 22 14 15 15 21 16 23 17 16 18 20 19 17 20 19 21 18 22 14 23
REMARK H PARENT 14 24
ROOT
ATOM      1  C   UNL     1     -24.487 -24.856   2.839  1.00  0.00     0.068 C 
ENDROOT
BRANCH   1   2
ATOM      2  C   UNL     1     -24.506 -23.381   3.284  1.00  0.00     0.088 C 
BRANCH   2   3
ATOM      3  C   UNL     1     -25.774 -22.694   2.816  1.00  0.00     0.130 C 
ATOM      4  O   UNL     1     -25.767 -21.515   2.461  1.00  0.00    -0.300 OA
ATOM      5  C   UNL     1     -27.036 -23.516   2.770  1.00  0.00     0.087 C 
ENDBRANCH   2   3
ENDBRANCH   1   2
BRANCH   1   6
ATOM      6  C   UNL     1     -24.063 -25.822   3.946  1.00  0.00    -0.040 A 
ATOM      7  C   UNL     1     -23.599 -27.119   3.679  1.00  0.00     0.004 A 
ATOM      8  C   UNL     1     -24.154 -25.410   5.287  1.00  0.00     0.004 A 
ATOM      9  C   UNL     1     -23.228 -27.973   4.721  1.00  0.00     0.000 A 
ATOM     10  C   UNL     1     -23.780 -26.264   6.327  1.00  0.00     0.000 A 
ATOM     11  C   UNL     1     -23.316 -27.545   6.043  1.00  0.00     0.000 A 
ENDBRANCH   1   6
BRANCH   1  12
ATOM     12  C   UNL     1     -23.721 -25.118   1.541  1.00  0.00     0.088 A 
ATOM     13  C   UNL     1     -24.332 -25.550   0.424  1.00  0.00     0.137 A 
ATOM     14  C   UNL     1     -22.251 -24.902   1.535  1.00  0.00     0.343 A 
ATOM     15  C   UNL     1     -23.592 -25.791  -0.817  1.00  0.00     0.060 A 
ATOM     16  O   UNL     1     -21.550 -25.287   0.399  1.00  0.00    -0.422 OA
ATOM     17  O   UNL     1     -21.652 -24.420   2.490  1.00  0.00    -0.246 OA
ATOM     18  C   UNL     1     -24.184 -26.108  -2.048  1.00  0.00     0.016 A 
ATOM     19  C   UNL     1     -22.206 -25.681  -0.776  1.00  0.00     0.142 A 
ATOM     20  C   UNL     1     -23.396 -26.344  -3.180  1.00  0.00     0.001 A 
ATOM     21  C   UNL     1     -21.405 -25.917  -1.894  1.00  0.00     0.048 A 
ATOM     22  C   UNL     1     -22.007 -26.257  -3.101  1.00  0.00     0.004 A 
BRANCH  13  23
ATOM     23  O   UNL     1     -25.688 -25.822   0.421  1.00  0.00    -0.507 OA
ATOM     24  H   UNL     1     -26.170 -24.998   0.236  1.00  0.00     0.293 HD
ENDBRANCH  13  23
ENDBRANCH   1  12
TORSDOF 5
ENDMDL
MODEL 2
REMARK VINA RESULT:    -5.066      0.063      1.007
REMARK INTER + INTRA:          -7.037
REMARK INTER:                  -6.508
REMARK INTRA:                  -0.529
REMARK UNBOUND:                -0.637
REMARK SMILES CC(=O)C[C@H](c1ccccc1)c1c(O)c2ccccc2oc1=O
REMARK SMILES IDX 5 1 4 2 2 3 3 4 1 5 6 6 7 7 11 8 8 9 10 10 9 11 12 12 13 13
REMARK SMILES IDX 22 14 15 15 21 16 23 17 16 18 20 19 17 20 19 21 18 22 14 23
REMARK H PARENT 14 24
ROOT
ATOM      1  C   UNL     1     -24.501 -24.863   2.820  1.00  0.00     0.068 C 
ENDROOT
BRANCH   1   2
ATOM      2  C   UNL     1     -24.542 -23.382   3.246  1.00  0.00     0.088 C 
BRANCH   2   3
ATOM      3  C   UNL     1     -25.831 -22.727   2.790  1.00  0.00     0.130 C 
ATOM      4  O   UNL     1     -25.864 -21.538   2.470  1.00  0.00    -0.300 OA
ATOM      5  C   UNL     1     -27.063 -23.590   2.711  1.00  0.00     0.087 C 
ENDBRANCH   2   3
ENDBRANCH   1   2
BRANCH   1   6
ATOM      6  C   UNL     1     -24.073 -25.808   3.943  1.00  0.00    -0.040 A 
ATOM      7  C   UNL     1     -24.129 -25.447   5.297  1.00  0.00     0.004 A 
ATOM      8  C   UNL     1     -23.585 -27.086   3.615  1.00  0.00     0.004 A 
ATOM      9  C   UNL     1     -23.722 -26.339   6.293  1.00  0.00     0.000 A 
ATOM     10  C   UNL     1     -23.181 -27.977   4.611  1.00  0.00     0.000 A 
ATOM     11  C   UNL     1     -23.251 -27.603   5.950  1.00  0.00     0.000 A 
ENDBRANCH   1   6
BRANCH   1  12
ATOM     12  C   UNL     1     -23.724 -25.133   1.532  1.00  0.00     0.088 A 
ATOM     13  C   UNL     1     -24.326 -25.562   0.408  1.00  0.00     0.137 A 
ATOM     14  C   UNL     1     -22.252 -24.927   1.540  1.00  0.00     0.343 A 
ATOM     15  C   UNL     1     -23.574 -25.811  -0.824  1.00  0.00     0.060 A 
ATOM     16  O   UNL     1     -21.542 -25.320   0.414  1.00  0.00    -0.422 OA
ATOM     17  O   UNL     1     -21.660 -24.449   2.502  1.00  0.00    -0.246 OA
ATOM     18  C   UNL     1     -24.156 -26.124  -2.060  1.00  0.00     0.016 A 
ATOM     19  C   UNL     1     -22.188 -25.711  -0.768  1.00  0.00     0.142 A 
ATOM     20  C   UNL     1     -23.357 -26.368  -3.184  1.00  0.00     0.001 A 
ATOM     21  C   UNL     1     -21.377 -25.954  -1.877  1.00  0.00     0.048 A 
ATOM     22  C   UNL     1     -21.968 -26.292  -3.090  1.00  0.00     0.004 A 
BRANCH  13  23
ATOM     23  O   UNL     1     -25.684 -25.824   0.392  1.00  0.00    -0.507 OA
ATOM     24  H   UNL     1     -26.099 -25.358   1.137  1.00  0.00     0.293 HD
ENDBRANCH  13  23
ENDBRANCH   1  12
TORSDOF 5
ENDMDL
MODEL 3
REMARK VINA RESULT:    -5.044      3.082      5.783
REMARK INTER + INTRA:          -7.008
REMARK INTER:                  -6.281
REMARK INTRA:                  -0.727
REMARK UNBOUND:                -0.637
REMARK SMILES CC(=O)C[C@H](c1ccccc1)c1c(O)c2ccccc2oc1=O
REMARK SMILES IDX 5 1 4 2 2 3 3 4 1 5 6 6 7 7 11 8 8 9 10 10 9 11 12 12 13 13
REMARK SMILES IDX 22 14 15 15 21 16 23 17 16 18 20 19 17 20 19 21 18 22 14 23
REMARK H PARENT 14 24
ROOT
ATOM      1  C   UNL     1     -23.426 -26.276  -0.498  1.00  0.00     0.068 C 
ENDROOT
BRANCH   1   2
ATOM      2  C   UNL     1     -21.967 -26.111  -0.965  1.00  0.00     0.088 C 
BRANCH   2   3
ATOM      3  C   UNL     1     -21.848 -26.363  -2.455  1.00  0.00     0.130 C 
ATOM      4  O   UNL     1     -20.940 -27.059  -2.914  1.00  0.00    -0.300 OA
ATOM      5  C   UNL     1     -22.896 -25.758  -3.351  1.00  0.00     0.087 C 
ENDBRANCH   2   3
ENDBRANCH   1   2
BRANCH   1   6
ATOM      6  C   UNL     1     -23.804 -25.350   0.659  1.00  0.00    -0.040 A 
ATOM      7  C   UNL     1     -25.106 -25.282   1.177  1.00  0.00     0.004 A 
ATOM      8  C   UNL     1     -22.820 -24.517   1.221  1.00  0.00     0.004 A 
ATOM      9  C   UNL     1     -25.412 -24.417   2.232  1.00  0.00     0.000 A 
ATOM     10  C   UNL     1     -23.126 -23.655   2.276  1.00  0.00     0.000 A 
ATOM     11  C   UNL     1     -24.422 -23.607   2.782  1.00  0.00     0.000 A 
ENDBRANCH   1   6
BRANCH   1  12
ATOM     12  C   UNL     1     -23.847 -27.720  -0.221  1.00  0.00     0.088 A 
ATOM     13  C   UNL     1     -23.361 -28.420   0.819  1.00  0.00     0.137 A 
ATOM     14  C   UNL     1     -24.812 -28.363  -1.150  1.00  0.00     0.343 A 
ATOM     15  C   UNL     1     -23.775 -29.801   1.080  1.00  0.00     0.060 A 
ATOM     16  O   UNL     1     -25.068 -29.716  -0.976  1.00  0.00    -0.422 OA
ATOM     17  O   UNL     1     -25.361 -27.748  -2.058  1.00  0.00    -0.246 OA
ATOM     18  C   UNL     1     -23.415 -30.537   2.217  1.00  0.00     0.016 A 
ATOM     19  C   UNL     1     -24.599 -30.418   0.145  1.00  0.00     0.142 A 
ATOM     20  C   UNL     1     -23.840 -31.862   2.375  1.00  0.00     0.001 A 
ATOM     21  C   UNL     1     -25.029 -31.738   0.284  1.00  0.00     0.048 A 
ATOM     22  C   UNL     1     -24.640 -32.465   1.405  1.00  0.00     0.004 A 
BRANCH  13  23
ATOM     23  O   UNL     1     -22.412 -27.869   1.660  1.00  0.00    -0.507 OA
ATOM     24  H   UNL     1     -22.108 -27.029   1.276  1.00  0.00     0.293 HD
ENDBRANCH  13  23
ENDBRANCH   1  12
TORSDOF 5
ENDMDL
MODEL 4
REMARK VINA RESULT:    -5.030      3.364      5.287
REMARK INTER + INTRA:          -6.990
REMARK INTER:                  -6.429
REMARK INTRA:                  -0.561
REMARK UNBOUND:                -0.637
REMARK SMILES CC(=O)C[C@H](c1ccccc1)c1c(O)c2ccccc2oc1=O
REMARK SMILES IDX 5 1 4 2 2 3 3 4 1 5 6 6 7 7 11 8 8 9 10 10 9 11 12 12 13 13
REMARK SMILES IDX 22 14 15 15 21 16 23 17 16 18 20 19 17 20 19 21 18 22 14 23
REMARK H PARENT 14 24
ROOT
ATOM      1  C   UNL     1     -23.757 -26.131  -0.600  1.00  0.00     0.068 C 
ENDROOT
BRANCH   1   2
ATOM      2  C   UNL     1     -22.463 -25.760  -1.351  1.00  0.00     0.088 C 
BRANCH   2   3
ATOM      3  C   UNL     1     -22.590 -26.076  -2.829  1.00  0.00     0.130 C 
ATOM      4  O   UNL     1     -23.564 -25.696  -3.480  1.00  0.00    -0.300 OA
ATOM      5  C   UNL     1     -21.467 -26.842  -3.477  1.00  0.00     0.087 C 
ENDBRANCH   2   3
ENDBRANCH   1   2
BRANCH   1   6
ATOM      6  C   UNL     1     -23.993 -25.295   0.658  1.00  0.00    -0.040 A 
ATOM      7  C   UNL     1     -22.987 -24.513   1.245  1.00  0.00     0.004 A 
ATOM      8  C   UNL     1     -25.260 -25.317   1.269  1.00  0.00     0.004 A 
ATOM      9  C   UNL     1     -23.242 -23.768   2.399  1.00  0.00     0.000 A 
ATOM     10  C   UNL     1     -25.514 -24.570   2.421  1.00  0.00     0.000 A 
ATOM     11  C   UNL     1     -24.505 -23.795   2.985  1.00  0.00     0.000 A 
ENDBRANCH   1   6
BRANCH   1  12
ATOM     12  C   UNL     1     -23.925 -27.625  -0.321  1.00  0.00     0.088 A 
ATOM     13  C   UNL     1     -24.746 -28.402  -1.050  1.00  0.00     0.137 A 
ATOM     14  C   UNL     1     -23.162 -28.221   0.807  1.00  0.00     0.343 A 
ATOM     15  C   UNL     1     -24.894 -29.835  -0.780  1.00  0.00     0.060 A 
ATOM     16  O   UNL     1     -23.438 -29.540   1.143  1.00  0.00    -0.422 OA
ATOM     17  O   UNL     1     -22.329 -27.587   1.446  1.00  0.00    -0.246 OA
ATOM     18  C   UNL     1     -25.622 -30.723  -1.582  1.00  0.00     0.016 A 
ATOM     19  C   UNL     1     -24.252 -30.352   0.340  1.00  0.00     0.142 A 
ATOM     20  C   UNL     1     -25.729 -32.075  -1.235  1.00  0.00     0.001 A 
ATOM     21  C   UNL     1     -24.350 -31.696   0.702  1.00  0.00     0.048 A 
ATOM     22  C   UNL     1     -25.100 -32.560  -0.089  1.00  0.00     0.004 A 
BRANCH  13  23
ATOM     23  O   UNL     1     -25.516 -27.861  -2.062  1.00  0.00    -0.507 OA
ATOM     24  H   UNL     1     -26.405 -27.679  -1.713  1.00  0.00     0.293 HD
ENDBRANCH  13  23
ENDBRANCH   1  12
TORSDOF 5
ENDMDL
MODEL 5
REMARK VINA RESULT:    -4.915      2.347      5.522
REMARK INTER + INTRA:          -6.845
REMARK INTER:                  -6.091
REMARK INTRA:                  -0.754
REMARK UNBOUND:                -0.637
REMARK SMILES CC(=O)C[C@H](c1ccccc1)c1c(O)c2ccccc2oc1=O
REMARK SMILES IDX 5 1 4 2 2 3 3 4 1 5 6 6 7 7 11 8 8 9 10 10 9 11 12 12 13 13
REMARK SMILES IDX 22 14 15 15 21 16 23 17 16 18 20 19 17 20 19 21 18 22 14 23
REMARK H PARENT 14 24
ROOT
ATOM      1  C   UNL     1     -23.317 -26.804  -0.881  1.00  0.00     0.068 C 
ENDROOT
BRANCH   1   2
ATOM      2  C   UNL     1     -24.096 -26.313  -2.117  1.00  0.00     0.088 C 
BRANCH   2   3
ATOM      3  C   UNL     1     -23.154 -26.039  -3.272  1.00  0.00     0.130 C 
ATOM      4  O   UNL     1     -23.490 -25.316  -4.211  1.00  0.00    -0.300 OA
ATOM      5  C   UNL     1     -21.782 -26.657  -3.215  1.00  0.00     0.087 C 
ENDBRANCH   2   3
ENDBRANCH   1   2
BRANCH   1   6
ATOM      6  C   UNL     1     -23.771 -28.177  -0.380  1.00  0.00    -0.040 A 
ATOM      7  C   UNL     1     -23.299 -28.737   0.817  1.00  0.00     0.004 A 
ATOM      8  C   UNL     1     -24.681 -28.921  -1.150  1.00  0.00     0.004 A 
ATOM      9  C   UNL     1     -23.734 -29.997   1.236  1.00  0.00     0.000 A 
ATOM     10  C   UNL     1     -25.117 -30.179  -0.729  1.00  0.00     0.000 A 
ATOM     11  C   UNL     1     -24.644 -30.716   0.465  1.00  0.00     0.000 A 
ENDBRANCH   1   6
BRANCH   1  12
ATOM     12  C   UNL     1     -23.231 -25.791   0.261  1.00  0.00     0.088 A 
ATOM     13  C   UNL     1     -24.326 -25.310   0.876  1.00  0.00     0.137 A 
ATOM     14  C   UNL     1     -21.887 -25.317   0.682  1.00  0.00     0.343 A 
ATOM     15  C   UNL     1     -24.233 -24.345   1.975  1.00  0.00     0.060 A 
ATOM     16  O   UNL     1     -21.831 -24.288   1.613  1.00  0.00    -0.422 OA
ATOM     17  O   UNL     1     -20.850 -25.787   0.225  1.00  0.00    -0.246 OA
ATOM     18  C   UNL     1     -25.320 -23.911   2.746  1.00  0.00     0.016 A 
ATOM     19  C   UNL     1     -22.976 -23.838   2.286  1.00  0.00     0.142 A 
ATOM     20  C   UNL     1     -25.141 -22.968   3.764  1.00  0.00     0.001 A 
ATOM     21  C   UNL     1     -22.781 -22.894   3.295  1.00  0.00     0.048 A 
ATOM     22  C   UNL     1     -23.874 -22.453   4.033  1.00  0.00     0.004 A 
BRANCH  13  23
ATOM     23  O   UNL     1     -25.590 -25.684   0.461  1.00  0.00    -0.507 OA
ATOM     24  H   UNL     1     -25.734 -26.616   0.702  1.00  0.00     0.293 HD
ENDBRANCH  13  23
ENDBRANCH   1  12
TORSDOF 5
ENDMDL
MODEL 6
REMARK VINA RESULT:    -4.884      2.461      3.792
REMARK INTER + INTRA:          -6.806
REMARK INTER:                  -6.133
REMARK INTRA:                  -0.674
REMARK UNBOUND:                -0.637
REMARK SMILES CC(=O)C[C@H](c1ccccc1)c1c(O)c2ccccc2oc1=O
REMARK SMILES IDX 5 1 4 2 2 3 3 4 1 5 6 6 7 7 11 8 8 9 10 10 9 11 12 12 13 13
REMARK SMILES IDX 22 14 15 15 21 16 23 17 16 18 20 19 17 20 19 21 18 22 14 23
REMARK H PARENT 14 24
ROOT
ATOM      1  C   UNL     1     -23.114 -26.669   0.163  1.00  0.00     0.068 C 
ENDROOT
BRANCH   1   2
ATOM      2  C   UNL     1     -22.357 -25.687   1.078  1.00  0.00     0.088 C 
BRANCH   2   3
ATOM      3  C   UNL     1     -23.293 -24.620   1.612  1.00  0.00     0.130 C 
ATOM      4  O   UNL     1     -22.864 -23.533   2.002  1.00  0.00    -0.300 OA
ATOM      5  C   UNL     1     -24.768 -24.924   1.617  1.00  0.00     0.087 C 
ENDBRANCH   2   3
ENDBRANCH   1   2
BRANCH   1   6
ATOM      6  C   UNL     1     -23.290 -28.060   0.775  1.00  0.00    -0.040 A 
ATOM      7  C   UNL     1     -23.933 -29.107   0.097  1.00  0.00     0.004 A 
ATOM      8  C   UNL     1     -22.808 -28.304   2.073  1.00  0.00     0.004 A 
ATOM      9  C   UNL     1     -24.078 -30.362   0.694  1.00  0.00     0.000 A 
ATOM     10  C   UNL     1     -22.952 -29.560   2.667  1.00  0.00     0.000 A 
ATOM     11  C   UNL     1     -23.586 -30.588   1.977  1.00  0.00     0.000 A 
ENDBRANCH   1   6
BRANCH   1  12
ATOM     12  C   UNL     1     -22.578 -26.748  -1.266  1.00  0.00     0.088 A 
ATOM     13  C   UNL     1     -23.261 -26.255  -2.315  1.00  0.00     0.137 A 
ATOM     14  C   UNL     1     -21.267 -27.410  -1.492  1.00  0.00     0.343 A 
ATOM     15  C   UNL     1     -22.735 -26.328  -3.681  1.00  0.00     0.060 A 
ATOM     16  O   UNL     1     -20.865 -27.609  -2.806  1.00  0.00    -0.422 OA
ATOM     17  O   UNL     1     -20.556 -27.794  -0.570  1.00  0.00    -0.246 OA
ATOM     18  C   UNL     1     -23.327 -25.715  -4.794  1.00  0.00     0.016 A 
ATOM     19  C   UNL     1     -21.558 -27.039  -3.885  1.00  0.00     0.142 A 
ATOM     20  C   UNL     1     -22.767 -25.856  -6.069  1.00  0.00     0.001 A 
ATOM     21  C   UNL     1     -20.988 -27.192  -5.149  1.00  0.00     0.048 A 
ATOM     22  C   UNL     1     -21.603 -26.601  -6.248  1.00  0.00     0.004 A 
BRANCH  13  23
ATOM     23  O   UNL     1     -24.512 -25.693  -2.142  1.00  0.00    -0.507 OA
ATOM     24  H   UNL     1     -24.797 -25.302  -2.986  1.00  0.00     0.293 HD
ENDBRANCH  13  23
ENDBRANCH   1  12
TORSDOF 5
ENDMDL
MODEL 7
REMARK VINA RESULT:    -4.728      3.109      6.614
REMARK INTER + INTRA:          -6.609
REMARK INTER:                  -5.890
REMARK INTRA:                  -0.718
REMARK UNBOUND:                -0.637
REMARK SMILES CC(=O)C[C@H](c1ccccc1)c1c(O)c2ccccc2oc1=O
REMARK SMILES IDX 5 1 4 2 2 3 3 4 1 5 6 6 7 7 11 8 8 9 10 10 9 11 12 12 13 13
REMARK SMILES IDX 22 14 15 15 21 16 23 17 16 18 20 19 17 20 19 21 18 22 14 23
REMARK H PARENT 14 24
ROOT
ATOM      1  C   UNL     1     -23.092 -26.787  -0.717  1.00  0.00     0.068 C 
ENDROOT
BRANCH   1   2
ATOM      2  C   UNL     1     -23.981 -25.577  -0.371  1.00  0.00     0.088 C 
BRANCH   2   3
ATOM      3  C   UNL     1     -23.929 -25.280   1.115  1.00  0.00     0.130 C 
ATOM      4  O   UNL     1     -22.862 -25.291   1.731  1.00  0.00    -0.300 OA
ATOM      5  C   UNL     1     -25.224 -24.940   1.804  1.00  0.00     0.087 C 
ENDBRANCH   2   3
ENDBRANCH   1   2
BRANCH   1   6
ATOM      6  C   UNL     1     -22.669 -26.833  -2.186  1.00  0.00    -0.040 A 
ATOM      7  C   UNL     1     -21.680 -27.707  -2.660  1.00  0.00     0.004 A 
ATOM      8  C   UNL     1     -23.278 -25.957  -3.102  1.00  0.00     0.004 A 
ATOM      9  C   UNL     1     -21.319 -27.713  -4.010  1.00  0.00     0.000 A 
ATOM     10  C   UNL     1     -22.918 -25.966  -4.451  1.00  0.00     0.000 A 
ATOM     11  C   UNL     1     -21.939 -26.845  -4.905  1.00  0.00     0.000 A 
ENDBRANCH   1   6
BRANCH   1  12
ATOM     12  C   UNL     1     -23.642 -28.135  -0.249  1.00  0.00     0.088 A 
ATOM     13  C   UNL     1     -23.129 -28.788   0.810  1.00  0.00     0.137 A 
ATOM     14  C   UNL     1     -24.768 -28.739  -1.007  1.00  0.00     0.343 A 
ATOM     15  C   UNL     1     -23.668 -30.076   1.256  1.00  0.00     0.060 A 
ATOM     16  O   UNL     1     -25.155 -30.027  -0.665  1.00  0.00    -0.422 OA
ATOM     17  O   UNL     1     -25.338 -28.150  -1.919  1.00  0.00    -0.246 OA
ATOM     18  C   UNL     1     -23.273 -30.740   2.426  1.00  0.00     0.016 A 
ATOM     19  C   UNL     1     -24.652 -30.672   0.475  1.00  0.00     0.142 A 
ATOM     20  C   UNL     1     -23.827 -31.980   2.764  1.00  0.00     0.001 A 
ATOM     21  C   UNL     1     -25.212 -31.909   0.796  1.00  0.00     0.048 A 
ATOM     22  C   UNL     1     -24.790 -32.568   1.945  1.00  0.00     0.004 A 
BRANCH  13  23
ATOM     23  O   UNL     1     -22.040 -28.281   1.493  1.00  0.00    -0.507 OA
ATOM     24  H   UNL     1     -21.858 -27.383   1.165  1.00  0.00     0.293 HD
ENDBRANCH  13  23
ENDBRANCH   1  12
TORSDOF 5
ENDMDL
MODEL 8
REMARK VINA RESULT:    -4.706      2.782      5.339
REMARK INTER + INTRA:          -6.582
REMARK INTER:                  -5.803
REMARK INTRA:                  -0.779
REMARK UNBOUND:                -0.637
REMARK SMILES CC(=O)C[C@H](c1ccccc1)c1c(O)c2ccccc2oc1=O
REMARK SMILES IDX 5 1 4 2 2 3 3 4 1 5 6 6 7 7 11 8 8 9 10 10 9 11 12 12 13 13
REMARK SMILES IDX 22 14 15 15 21 16 23 17 16 18 20 19 17 20 19 21 18 22 14 23
REMARK H PARENT 14 24
ROOT
ATOM      1  C   UNL     1     -25.461 -23.810   3.531  1.00  0.00     0.068 C 
ENDROOT
BRANCH   1   2
ATOM      2  C   UNL     1     -25.135 -23.831   5.037  1.00  0.00     0.088 C 
BRANCH   2   3
ATOM      3  C   UNL     1     -26.261 -23.207   5.839  1.00  0.00     0.130 C 
ATOM      4  O   UNL     1     -26.038 -22.328   6.673  1.00  0.00    -0.300 OA
ATOM      5  C   UNL     1     -27.663 -23.679   5.557  1.00  0.00     0.087 C 
ENDBRANCH   2   3
ENDBRANCH   1   2
BRANCH   1   6
ATOM      6  C   UNL     1     -24.809 -24.951   2.749  1.00  0.00    -0.040 A 
ATOM      7  C   UNL     1     -24.922 -25.074   1.357  1.00  0.00     0.004 A 
ATOM      8  C   UNL     1     -24.080 -25.930   3.447  1.00  0.00     0.004 A 
ATOM      9  C   UNL     1     -24.315 -26.136   0.681  1.00  0.00     0.000 A 
ATOM     10  C   UNL     1     -23.471 -26.990   2.771  1.00  0.00     0.000 A 
ATOM     11  C   UNL     1     -23.588 -27.091   1.387  1.00  0.00     0.000 A 
ENDBRANCH   1   6
BRANCH   1  12
ATOM     12  C   UNL     1     -25.233 -22.461   2.849  1.00  0.00     0.088 A 
ATOM     13  C   UNL     1     -24.006 -21.925   2.715  1.00  0.00     0.137 A 
ATOM     14  C   UNL     1     -26.415 -21.720   2.338  1.00  0.00     0.343 A 
ATOM     15  C   UNL     1     -23.796 -20.634   2.053  1.00  0.00     0.060 A 
ATOM     16  O   UNL     1     -26.209 -20.433   1.859  1.00  0.00    -0.422 OA
ATOM     17  O   UNL     1     -27.545 -22.197   2.345  1.00  0.00    -0.246 OA
ATOM     18  C   UNL     1     -22.539 -20.087   1.760  1.00  0.00     0.016 A 
ATOM     19  C   UNL     1     -24.921 -19.911   1.673  1.00  0.00     0.142 A 
ATOM     20  C   UNL     1     -22.432 -18.835   1.144  1.00  0.00     0.001 A 
ATOM     21  C   UNL     1     -24.832 -18.660   1.061  1.00  0.00     0.048 A 
ATOM     22  C   UNL     1     -23.577 -18.118   0.802  1.00  0.00     0.004 A 
BRANCH  13  23
ATOM     23  O   UNL     1     -22.897 -22.561   3.240  1.00  0.00    -0.507 OA
ATOM     24  H   UNL     1     -23.057 -22.739   4.182  1.00  0.00     0.293 HD
ENDBRANCH  13  23
ENDBRANCH   1  12
TORSDOF 5
ENDMDL
MODEL 9
REMARK VINA RESULT:    -4.705      3.045      7.683
REMARK INTER + INTRA:          -6.580
REMARK INTER:                  -6.410
REMARK INTRA:                  -0.171
REMARK UNBOUND:                -0.637
REMARK SMILES CC(=O)C[C@H](c1ccccc1)c1c(O)c2ccccc2oc1=O
REMARK SMILES IDX 5 1 4 2 2 3 3 4 1 5 6 6 7 7 11 8 8 9 10 10 9 11 12 12 13 13
REMARK SMILES IDX 22 14 15 15 21 16 23 17 16 18 20 19 17 20 19 21 18 22 14 23
REMARK H PARENT 14 24
ROOT
ATOM      1  C   UNL     1     -24.784 -27.984  -3.406  1.00  0.00     0.068 C 
ENDROOT
BRANCH   1   2
ATOM      2  C   UNL     1     -25.479 -29.272  -3.891  1.00  0.00     0.088 C 
BRANCH   2   3
ATOM      3  C   UNL     1     -26.581 -28.947  -4.881  1.00  0.00     0.130 C 
ATOM      4  O   UNL     1     -27.717 -28.659  -4.499  1.00  0.00    -0.300 OA
ATOM      5  C   UNL     1     -26.229 -28.959  -6.345  1.00  0.00     0.087 C 
ENDBRANCH   2   3
ENDBRANCH   1   2
BRANCH   1   6
ATOM      6  C   UNL     1     -23.578 -27.585  -4.257  1.00  0.00    -0.040 A 
ATOM      7  C   UNL     1     -23.621 -26.528  -5.179  1.00  0.00     0.004 A 
ATOM      8  C   UNL     1     -22.380 -28.310  -4.131  1.00  0.00     0.004 A 
ATOM      9  C   UNL     1     -22.497 -26.200  -5.942  1.00  0.00     0.000 A 
ATOM     10  C   UNL     1     -21.257 -27.979  -4.892  1.00  0.00     0.000 A 
ATOM     11  C   UNL     1     -21.316 -26.923  -5.797  1.00  0.00     0.000 A 
ENDBRANCH   1   6
BRANCH   1  12
ATOM     12  C   UNL     1     -24.449 -27.966  -1.914  1.00  0.00     0.088 A 
ATOM     13  C   UNL     1     -24.479 -26.834  -1.188  1.00  0.00     0.137 A 
ATOM     14  C   UNL     1     -24.063 -29.244  -1.262  1.00  0.00     0.343 A 
ATOM     15  C   UNL     1     -24.165 -26.827   0.244  1.00  0.00     0.060 A 
ATOM     16  O   UNL     1     -23.617 -29.186   0.052  1.00  0.00    -0.422 OA
ATOM     17  O   UNL     1     -24.109 -30.321  -1.847  1.00  0.00    -0.246 OA
ATOM     18  C   UNL     1     -24.309 -25.714   1.083  1.00  0.00     0.016 A 
ATOM     19  C   UNL     1     -23.708 -28.011   0.812  1.00  0.00     0.142 A 
ATOM     20  C   UNL     1     -23.963 -25.792   2.437  1.00  0.00     0.001 A 
ATOM     21  C   UNL     1     -23.355 -28.105   2.158  1.00  0.00     0.048 A 
ATOM     22  C   UNL     1     -23.478 -26.984   2.973  1.00  0.00     0.004 A 
BRANCH  13  23
ATOM     23  O   UNL     1     -24.771 -25.621  -1.783  1.00  0.00    -0.507 OA
ATOM     24  H   UNL     1     -23.953 -25.256  -2.162  1.00  0.00     0.293 HD
ENDBRANCH  13  23
ENDBRANCH   1  12
TORSDOF 5
ENDMDL
MODEL 10
REMARK VINA RESULT:    -4.704      2.553      4.505
REMARK INTER + INTRA:          -6.579
REMARK INTER:                  -5.871
REMARK INTRA:                  -0.708
REMARK UNBOUND:                -0.637
REMARK SMILES CC(=O)C[C@H](c1ccccc1)c1c(O)c2ccccc2oc1=O
REMARK SMILES IDX 5 1 4 2 2 3 3 4 1 5 6 6 7 7 11 8 8 9 10 10 9 11 12 12 13 13
REMARK SMILES IDX 22 14 15 15 21 16 23 17 16 18 20 19 17 20 19 21 18 22 14 23
REMARK H PARENT 14 24
ROOT
ATOM      1  C   UNL     1     -23.311 -25.470   0.474  1.00  0.00     0.068 C 
ENDROOT
BRANCH   1   2
ATOM      2  C   UNL     1     -21.810 -25.421   0.825  1.00  0.00     0.088 C 
BRANCH   2   3
ATOM      3  C   UNL     1     -20.965 -25.792  -0.379  1.00  0.00     0.130 C 
ATOM      4  O   UNL     1     -21.169 -25.282  -1.482  1.00  0.00    -0.300 OA
ATOM      5  C   UNL     1     -19.849 -26.780  -0.169  1.00  0.00     0.087 C 
ENDBRANCH   2   3
ENDBRANCH   1   2
BRANCH   1   6
ATOM      6  C   UNL     1     -24.218 -24.995   1.610  1.00  0.00    -0.040 A 
ATOM      7  C   UNL     1     -25.588 -24.753   1.431  1.00  0.00     0.004 A 
ATOM      8  C   UNL     1     -23.663 -24.772   2.883  1.00  0.00     0.004 A 
ATOM      9  C   UNL     1     -26.381 -24.313   2.494  1.00  0.00     0.000 A 
ATOM     10  C   UNL     1     -24.457 -24.335   3.945  1.00  0.00     0.000 A 
ATOM     11  C   UNL     1     -25.817 -24.106   3.750  1.00  0.00     0.000 A 
ENDBRANCH   1   6
BRANCH   1  12
ATOM     12  C   UNL     1     -23.786 -26.804  -0.103  1.00  0.00     0.088 A 
ATOM     13  C   UNL     1     -24.362 -26.895  -1.315  1.00  0.00     0.137 A 
ATOM     14  C   UNL     1     -23.615 -28.029   0.720  1.00  0.00     0.343 A 
ATOM     15  C   UNL     1     -24.807 -28.179  -1.863  1.00  0.00     0.060 A 
ATOM     16  O   UNL     1     -24.185 -29.204   0.250  1.00  0.00    -0.422 OA
ATOM     17  O   UNL     1     -23.013 -28.025   1.789  1.00  0.00    -0.246 OA
ATOM     18  C   UNL     1     -25.286 -28.362  -3.168  1.00  0.00     0.016 A 
ATOM     19  C   UNL     1     -24.732 -29.296  -1.039  1.00  0.00     0.142 A 
ATOM     20  C   UNL     1     -25.712 -29.623  -3.601  1.00  0.00     0.001 A 
ATOM     21  C   UNL     1     -25.154 -30.559  -1.453  1.00  0.00     0.048 A 
ATOM     22  C   UNL     1     -25.654 -30.720  -2.742  1.00  0.00     0.004 A 
BRANCH  13  23
ATOM     23  O   UNL     1     -24.592 -25.762  -2.074  1.00  0.00    -0.507 OA
ATOM     24  H   UNL     1     -25.449 -25.859  -2.524  1.00  0.00     0.293 HD
ENDBRANCH  13  23
ENDBRANCH   1  12
TORSDOF 5
ENDMDL
MODEL 11
REMARK VINA RESULT:    -4.640      1.327      3.779
REMARK INTER + INTRA:          -6.498
REMARK INTER:                  -5.802
REMARK INTRA:                  -0.696
REMARK UNBOUND:                -0.637
REMARK SMILES CC(=O)C[C@H](c1ccccc1)c1c(O)c2ccccc2oc1=O
REMARK SMILES IDX 5 1 4 2 2 3 3 4 1 5 6 6 7 7 11 8 8 9 10 10 9 11 12 12 13 13
REMARK SMILES IDX 22 14 15 15 21 16 23 17 16 18 20 19 17 20 19 21 18 22 14 23
REMARK H PARENT 14 24
ROOT
ATOM      1  C   UNL     1     -23.702 -24.361   2.742  1.00  0.00     0.068 C 
ENDROOT
BRANCH   1   2
ATOM      2  C   UNL     1     -24.587 -25.385   3.478  1.00  0.00     0.088 C 
BRANCH   2   3
ATOM      3  C   UNL     1     -23.753 -26.538   4.002  1.00  0.00     0.130 C 
ATOM      4  O   UNL     1     -23.666 -27.597   3.378  1.00  0.00    -0.300 OA
ATOM      5  C   UNL     1     -23.011 -26.331   5.295  1.00  0.00     0.087 C 
ENDBRANCH   2   3
ENDBRANCH   1   2
BRANCH   1   6
ATOM      6  C   UNL     1     -24.354 -22.985   2.595  1.00  0.00    -0.040 A 
ATOM      7  C   UNL     1     -23.625 -21.837   2.252  1.00  0.00     0.004 A 
ATOM      8  C   UNL     1     -25.734 -22.853   2.828  1.00  0.00     0.004 A 
ATOM      9  C   UNL     1     -24.259 -20.597   2.134  1.00  0.00     0.000 A 
ATOM     10  C   UNL     1     -26.367 -21.614   2.708  1.00  0.00     0.000 A 
ATOM     11  C   UNL     1     -25.629 -20.486   2.359  1.00  0.00     0.000 A 
ENDBRANCH   1   6
BRANCH   1  12
ATOM     12  C   UNL     1     -23.127 -24.854   1.414  1.00  0.00     0.088 A 
ATOM     13  C   UNL     1     -23.913 -25.281   0.409  1.00  0.00     0.137 A 
ATOM     14  C   UNL     1     -21.651 -24.874   1.249  1.00  0.00     0.343 A 
ATOM     15  C   UNL     1     -23.353 -25.745  -0.864  1.00  0.00     0.060 A 
ATOM     16  O   UNL     1     -21.141 -25.464   0.100  1.00  0.00    -0.422 OA
ATOM     17  O   UNL     1     -20.888 -24.410   2.090  1.00  0.00    -0.246 OA
ATOM     18  C   UNL     1     -24.115 -26.071  -1.994  1.00  0.00     0.016 A 
ATOM     19  C   UNL     1     -21.970 -25.852  -0.963  1.00  0.00     0.142 A 
ATOM     20  C   UNL     1     -23.497 -26.528  -3.164  1.00  0.00     0.001 A 
ATOM     21  C   UNL     1     -21.338 -26.308  -2.119  1.00  0.00     0.048 A 
ATOM     22  C   UNL     1     -22.109 -26.655  -3.224  1.00  0.00     0.004 A 
BRANCH  13  23
ATOM     23  O   UNL     1     -25.286 -25.335   0.560  1.00  0.00    -0.507 OA
ATOM     24  H   UNL     1     -25.592 -24.487   0.926  1.00  0.00     0.293 HD
ENDBRANCH  13  23
ENDBRANCH   1  12
TORSDOF 5
ENDMDL
MODEL 12
REMARK VINA RESULT:    -4.633      2.694      4.624
REMARK INTER + INTRA:          -6.489
REMARK INTER:                  -5.681
REMARK INTRA:                  -0.808
REMARK UNBOUND:                -0.637
REMARK SMILES CC(=O)C[C@H](c1ccccc1)c1c(O)c2ccccc2oc1=O
REMARK SMILES IDX 5 1 4 2 2 3 3 4 1 5 6 6 7 7 11 8 8 9 10 10 9 11 12 12 13 13
REMARK SMILES IDX 22 14 15 15 21 16 23 17 16 18 20 19 17 20 19 21 18 22 14 23
REMARK H PARENT 14 24
ROOT
ATOM      1  C   UNL     1     -24.816 -24.150   3.873  1.00  0.00     0.068 C 
ENDROOT
BRANCH   1   2
ATOM      2  C   UNL     1     -24.921 -24.166   5.410  1.00  0.00     0.088 C 
BRANCH   2   3
ATOM      3  C   UNL     1     -26.320 -23.790   5.858  1.00  0.00     0.130 C 
ATOM      4  O   UNL     1     -27.135 -23.313   5.067  1.00  0.00    -0.300 OA
ATOM      5  C   UNL     1     -26.686 -24.049   7.295  1.00  0.00     0.087 C 
ENDBRANCH   2   3
ENDBRANCH   1   2
BRANCH   1   6
ATOM      6  C   UNL     1     -24.283 -25.457   3.284  1.00  0.00    -0.040 A 
ATOM      7  C   UNL     1     -24.220 -25.692   1.902  1.00  0.00     0.004 A 
ATOM      8  C   UNL     1     -23.853 -26.475   4.153  1.00  0.00     0.004 A 
ATOM      9  C   UNL     1     -23.732 -26.903   1.405  1.00  0.00     0.000 A 
ATOM     10  C   UNL     1     -23.363 -27.684   3.654  1.00  0.00     0.000 A 
ATOM     11  C   UNL     1     -23.301 -27.897   2.280  1.00  0.00     0.000 A 
ENDBRANCH   1   6
BRANCH   1  12
ATOM     12  C   UNL     1     -24.085 -22.936   3.298  1.00  0.00     0.088 A 
ATOM     13  C   UNL     1     -24.727 -21.972   2.614  1.00  0.00     0.137 A 
ATOM     14  C   UNL     1     -22.615 -22.840   3.495  1.00  0.00     0.343 A 
ATOM     15  C   UNL     1     -24.019 -20.808   2.073  1.00  0.00     0.060 A 
ATOM     16  O   UNL     1     -21.945 -21.814   2.841  1.00  0.00    -0.422 OA
ATOM     17  O   UNL     1     -21.991 -23.635   4.189  1.00  0.00    -0.246 OA
ATOM     18  C   UNL     1     -24.644 -19.706   1.474  1.00  0.00     0.016 A 
ATOM     19  C   UNL     1     -22.633 -20.786   2.179  1.00  0.00     0.142 A 
ATOM     20  C   UNL     1     -23.886 -18.645   0.964  1.00  0.00     0.001 A 
ATOM     21  C   UNL     1     -21.862 -19.739   1.674  1.00  0.00     0.048 A 
ATOM     22  C   UNL     1     -22.495 -18.665   1.057  1.00  0.00     0.004 A 
BRANCH  13  23
ATOM     23  O   UNL     1     -26.082 -22.069   2.360  1.00  0.00    -0.507 OA
ATOM     24  H   UNL     1     -26.223 -22.752   1.682  1.00  0.00     0.293 HD
ENDBRANCH  13  23
ENDBRANCH   1  12
TORSDOF 5
ENDMDL
MODEL 13
REMARK VINA RESULT:    -4.541      3.184      6.150
REMARK INTER + INTRA:          -6.373
REMARK INTER:                  -5.563
REMARK INTRA:                  -0.810
REMARK UNBOUND:                -0.637
REMARK SMILES CC(=O)C[C@H](c1ccccc1)c1c(O)c2ccccc2oc1=O
REMARK SMILES IDX 5 1 4 2 2 3 3 4 1 5 6 6 7 7 11 8 8 9 10 10 9 11 12 12 13 13
REMARK SMILES IDX 22 14 15 15 21 16 23 17 16 18 20 19 17 20 19 21 18 22 14 23
REMARK H PARENT 14 24
ROOT
ATOM      1  C   UNL     1     -22.974 -26.510  -0.595  1.00  0.00     0.068 C 
ENDROOT
BRANCH   1   2
ATOM      2  C   UNL     1     -24.150 -25.555  -0.314  1.00  0.00     0.088 C 
BRANCH   2   3
ATOM      3  C   UNL     1     -24.148 -25.111   1.136  1.00  0.00     0.130 C 
ATOM      4  O   UNL     1     -25.130 -25.288   1.858  1.00  0.00    -0.300 OA
ATOM      5  C   UNL     1     -22.891 -24.475   1.669  1.00  0.00     0.087 C 
ENDBRANCH   2   3
ENDBRANCH   1   2
BRANCH   1   6
ATOM      6  C   UNL     1     -22.605 -26.605  -2.076  1.00  0.00    -0.040 A 
ATOM      7  C   UNL     1     -21.471 -27.294  -2.529  1.00  0.00     0.004 A 
ATOM      8  C   UNL     1     -23.418 -25.964  -3.027  1.00  0.00     0.004 A 
ATOM      9  C   UNL     1     -21.166 -27.352  -3.892  1.00  0.00     0.000 A 
ATOM     10  C   UNL     1     -23.114 -26.024  -4.389  1.00  0.00     0.000 A 
ATOM     11  C   UNL     1     -21.988 -26.719  -4.820  1.00  0.00     0.000 A 
ENDBRANCH   1   6
BRANCH   1  12
ATOM     12  C   UNL     1     -23.114 -27.894   0.038  1.00  0.00     0.088 A 
ATOM     13  C   UNL     1     -24.116 -28.731  -0.284  1.00  0.00     0.137 A 
ATOM     14  C   UNL     1     -22.112 -28.309   1.055  1.00  0.00     0.343 A 
ATOM     15  C   UNL     1     -24.238 -30.060   0.322  1.00  0.00     0.060 A 
ATOM     16  O   UNL     1     -22.337 -29.502   1.729  1.00  0.00    -0.422 OA
ATOM     17  O   UNL     1     -21.125 -27.632   1.321  1.00  0.00    -0.246 OA
ATOM     18  C   UNL     1     -25.173 -31.029  -0.068  1.00  0.00     0.016 A 
ATOM     19  C   UNL     1     -23.352 -30.389   1.342  1.00  0.00     0.142 A 
ATOM     20  C   UNL     1     -25.232 -32.266   0.583  1.00  0.00     0.001 A 
ATOM     21  C   UNL     1     -23.400 -31.616   2.004  1.00  0.00     0.048 A 
ATOM     22  C   UNL     1     -24.352 -32.557   1.624  1.00  0.00     0.004 A 
BRANCH  13  23
ATOM     23  O   UNL     1     -25.098 -28.345  -1.178  1.00  0.00    -0.507 OA
ATOM     24  H   UNL     1     -25.744 -27.791  -0.708  1.00  0.00     0.293 HD
ENDBRANCH  13  23
ENDBRANCH   1  12
TORSDOF 5
ENDMDL
MODEL 14
REMARK VINA RESULT:    -4.510      8.824     12.902
REMARK INTER + INTRA:          -6.334
REMARK INTER:                  -5.758
REMARK INTRA:                  -0.576
REMARK UNBOUND:                -0.637
REMARK SMILES CC(=O)C[C@H](c1ccccc1)c1c(O)c2ccccc2oc1=O
REMARK SMILES IDX 5 1 4 2 2 3 3 4 1 5 6 6 7 7 11 8 8 9 10 10 9 11 12 12 13 13
REMARK SMILES IDX 22 14 15 15 21 16 23 17 16 18 20 19 17 20 19 21 18 22 14 23
REMARK H PARENT 14 24
ROOT
ATOM      1  C   UNL     1     -23.828 -22.134 -10.166  1.00  0.00     0.068 C 
ENDROOT
BRANCH   1   2
ATOM      2  C   UNL     1     -25.058 -21.230 -10.380  1.00  0.00     0.088 C 
BRANCH   2   3
ATOM      3  C   UNL     1     -24.902 -19.922  -9.629  1.00  0.00     0.130 C 
ATOM      4  O   UNL     1     -23.812 -19.352  -9.562  1.00  0.00    -0.300 OA
ATOM      5  C   UNL     1     -26.132 -19.330  -8.995  1.00  0.00     0.087 C 
ENDBRANCH   2   3
ENDBRANCH   1   2
BRANCH   1   6
ATOM      6  C   UNL     1     -22.947 -22.269 -11.409  1.00  0.00    -0.040 A 
ATOM      7  C   UNL     1     -21.854 -23.146 -11.467  1.00  0.00     0.004 A 
ATOM      8  C   UNL     1     -23.224 -21.474 -12.535  1.00  0.00     0.004 A 
ATOM      9  C   UNL     1     -21.069 -23.234 -12.620  1.00  0.00     0.000 A 
ATOM     10  C   UNL     1     -22.441 -21.565 -13.688  1.00  0.00     0.000 A 
ATOM     11  C   UNL     1     -21.364 -22.446 -13.730  1.00  0.00     0.000 A 
ENDBRANCH   1   6
BRANCH   1  12
ATOM     12  C   UNL     1     -24.141 -23.498  -9.549  1.00  0.00     0.088 A 
ATOM     13  C   UNL     1     -23.614 -23.890  -8.375  1.00  0.00     0.137 A 
ATOM     14  C   UNL     1     -25.044 -24.416 -10.290  1.00  0.00     0.343 A 
ATOM     15  C   UNL     1     -23.925 -25.196  -7.788  1.00  0.00     0.060 A 
ATOM     16  O   UNL     1     -25.198 -25.704  -9.794  1.00  0.00    -0.422 OA
ATOM     17  O   UNL     1     -25.628 -24.080 -11.314  1.00  0.00    -0.246 OA
ATOM     18  C   UNL     1     -23.522 -25.609  -6.510  1.00  0.00     0.016 A 
ATOM     19  C   UNL     1     -24.689 -26.080  -8.542  1.00  0.00     0.142 A 
ATOM     20  C   UNL     1     -23.847 -26.885  -6.037  1.00  0.00     0.001 A 
ATOM     21  C   UNL     1     -25.019 -27.356  -8.087  1.00  0.00     0.048 A 
ATOM     22  C   UNL     1     -24.588 -27.762  -6.828  1.00  0.00     0.004 A 
BRANCH  13  23
ATOM     23  O   UNL     1     -22.720 -23.082  -7.698  1.00  0.00    -0.507 OA
ATOM     24  H   UNL     1     -23.217 -22.518  -7.080  1.00  0.00     0.293 HD
ENDBRANCH  13  23
ENDBRANCH   1  12
TORSDOF 5
ENDMDL
MODEL 15
REMARK VINA RESULT:    -4.491      3.626      8.099
REMARK INTER + INTRA:          -6.310
REMARK INTER:                  -5.567
REMARK INTRA:                  -0.743
REMARK UNBOUND:                -0.637
REMARK SMILES CC(=O)C[C@H](c1ccccc1)c1c(O)c2ccccc2oc1=O
REMARK SMILES IDX 5 1 4 2 2 3 3 4 1 5 6 6 7 7 11 8 8 9 10 10 9 11 12 12 13 13
REMARK SMILES IDX 22 14 15 15 21 16 23 17 16 18 20 19 17 20 19 21 18 22 14 23
REMARK H PARENT 14 24
ROOT
ATOM      1  C   UNL     1     -23.884 -27.469  -4.442  1.00  0.00     0.068 C 
ENDROOT
BRANCH   1   2
ATOM      2  C   UNL     1     -24.146 -28.987  -4.502  1.00  0.00     0.088 C 
BRANCH   2   3
ATOM      3  C   UNL     1     -25.532 -29.314  -3.981  1.00  0.00     0.130 C 
ATOM      4  O   UNL     1     -26.313 -28.423  -3.645  1.00  0.00    -0.300 OA
ATOM      5  C   UNL     1     -25.929 -30.765  -3.919  1.00  0.00     0.087 C 
ENDBRANCH   2   3
ENDBRANCH   1   2
BRANCH   1   6
ATOM      6  C   UNL     1     -23.408 -26.879  -5.771  1.00  0.00    -0.040 A 
ATOM      7  C   UNL     1     -23.108 -27.676  -6.886  1.00  0.00     0.004 A 
ATOM      8  C   UNL     1     -23.245 -25.488  -5.883  1.00  0.00     0.004 A 
ATOM      9  C   UNL     1     -22.670 -27.097  -8.080  1.00  0.00     0.000 A 
ATOM     10  C   UNL     1     -22.810 -24.910  -7.078  1.00  0.00     0.000 A 
ATOM     11  C   UNL     1     -22.523 -25.716  -8.176  1.00  0.00     0.000 A 
ENDBRANCH   1   6
BRANCH   1  12
ATOM     12  C   UNL     1     -22.996 -27.023  -3.280  1.00  0.00     0.088 A 
ATOM     13  C   UNL     1     -23.486 -26.351  -2.222  1.00  0.00     0.137 A 
ATOM     14  C   UNL     1     -21.544 -27.333  -3.342  1.00  0.00     0.343 A 
ATOM     15  C   UNL     1     -22.629 -25.934  -1.109  1.00  0.00     0.060 A 
ATOM     16  O   UNL     1     -20.729 -26.792  -2.357  1.00  0.00    -0.422 OA
ATOM     17  O   UNL     1     -21.056 -28.023  -4.231  1.00  0.00    -0.246 OA
ATOM     18  C   UNL     1     -23.096 -25.356   0.079  1.00  0.00     0.016 A 
ATOM     19  C   UNL     1     -21.260 -26.143  -1.233  1.00  0.00     0.142 A 
ATOM     20  C   UNL     1     -22.201 -24.967   1.083  1.00  0.00     0.001 A 
ATOM     21  C   UNL     1     -20.354 -25.759  -0.244  1.00  0.00     0.048 A 
ATOM     22  C   UNL     1     -20.830 -25.160   0.919  1.00  0.00     0.004 A 
BRANCH  13  23
ATOM     23  O   UNL     1     -24.820 -25.992  -2.170  1.00  0.00    -0.507 OA
ATOM     24  H   UNL     1     -24.902 -25.062  -2.441  1.00  0.00     0.293 HD
ENDBRANCH  13  23
ENDBRANCH   1  12
TORSDOF 5
ENDMDL
MODEL 16
REMARK VINA RESULT:    -4.448      3.571      5.940
REMARK INTER + INTRA:          -6.255
REMARK INTER:                  -5.552
REMARK INTRA:                  -0.703
REMARK UNBOUND:                -0.637
REMARK SMILES CC(=O)C[C@H](c1ccccc1)c1c(O)c2ccccc2oc1=O
REMARK SMILES IDX 5 1 4 2 2 3 3 4 1 5 6 6 7 7 11 8 8 9 10 10 9 11 12 12 13 13
REMARK SMILES IDX 22 14 15 15 21 16 23 17 16 18 20 19 17 20 19 21 18 22 14 23
REMARK H PARENT 14 24
ROOT
ATOM      1  C   UNL     1     -27.789 -23.406   2.856  1.00  0.00     0.068 C 
ENDROOT
BRANCH   1   2
ATOM      2  C   UNL     1     -28.271 -23.019   4.268  1.00  0.00     0.088 C 
BRANCH   2   3
ATOM      3  C   UNL     1     -29.266 -24.035   4.794  1.00  0.00     0.130 C 
ATOM      4  O   UNL     1     -29.362 -24.268   6.000  1.00  0.00    -0.300 OA
ATOM      5  C   UNL     1     -30.154 -24.725   3.792  1.00  0.00     0.087 C 
ENDBRANCH   2   3
ENDBRANCH   1   2
BRANCH   1   6
ATOM      6  C   UNL     1     -26.411 -24.070   2.842  1.00  0.00    -0.040 A 
ATOM      7  C   UNL     1     -25.567 -24.080   3.963  1.00  0.00     0.004 A 
ATOM      8  C   UNL     1     -25.956 -24.681   1.661  1.00  0.00     0.004 A 
ATOM      9  C   UNL     1     -24.312 -24.692   3.906  1.00  0.00     0.000 A 
ATOM     10  C   UNL     1     -24.703 -25.294   1.606  1.00  0.00     0.000 A 
ATOM     11  C   UNL     1     -23.882 -25.301   2.730  1.00  0.00     0.000 A 
ENDBRANCH   1   6
BRANCH   1  12
ATOM     12  C   UNL     1     -27.881 -22.283   1.823  1.00  0.00     0.088 A 
ATOM     13  C   UNL     1     -28.586 -22.414   0.684  1.00  0.00     0.137 A 
ATOM     14  C   UNL     1     -27.149 -21.018   2.089  1.00  0.00     0.343 A 
ATOM     15  C   UNL     1     -28.675 -21.329  -0.297  1.00  0.00     0.060 A 
ATOM     16  O   UNL     1     -27.118 -20.068   1.077  1.00  0.00    -0.422 OA
ATOM     17  O   UNL     1     -26.569 -20.804   3.148  1.00  0.00    -0.246 OA
ATOM     18  C   UNL     1     -29.499 -21.349  -1.431  1.00  0.00     0.016 A 
ATOM     19  C   UNL     1     -27.903 -20.193  -0.079  1.00  0.00     0.142 A 
ATOM     20  C   UNL     1     -29.504 -20.275  -2.328  1.00  0.00     0.001 A 
ATOM     21  C   UNL     1     -27.894 -19.116  -0.965  1.00  0.00     0.048 A 
ATOM     22  C   UNL     1     -28.696 -19.162  -2.100  1.00  0.00     0.004 A 
BRANCH  13  23
ATOM     23  O   UNL     1     -29.222 -23.603   0.381  1.00  0.00    -0.507 OA
ATOM     24  H   UNL     1     -28.987 -24.262   1.056  1.00  0.00     0.293 HD
ENDBRANCH  13  23
ENDBRANCH   1  12
TORSDOF 5
ENDMDL
MODEL 17
REMARK VINA RESULT:    -4.417      5.440      8.708
REMARK INTER + INTRA:          -6.217
REMARK INTER:                  -5.461
REMARK INTRA:                  -0.756
REMARK UNBOUND:                -0.637
REMARK SMILES CC(=O)C[C@H](c1ccccc1)c1c(O)c2ccccc2oc1=O
REMARK SMILES IDX 5 1 4 2 2 3 3 4 1 5 6 6 7 7 11 8 8 9 10 10 9 11 12 12 13 13
REMARK SMILES IDX 22 14 15 15 21 16 23 17 16 18 20 19 17 20 19 21 18 22 14 23
REMARK H PARENT 14 24
ROOT
ATOM      1  C   UNL     1     -21.850 -26.769  -5.277  1.00  0.00     0.068 C 
ENDROOT
BRANCH   1   2
ATOM      2  C   UNL     1     -20.543 -27.526  -5.581  1.00  0.00     0.088 C 
BRANCH   2   3
ATOM      3  C   UNL     1     -19.668 -26.731  -6.530  1.00  0.00     0.130 C 
ATOM      4  O   UNL     1     -20.159 -26.075  -7.450  1.00  0.00    -0.300 OA
ATOM      5  C   UNL     1     -18.182 -26.746  -6.289  1.00  0.00     0.087 C 
ENDBRANCH   2   3
ENDBRANCH   1   2
BRANCH   1   6
ATOM      6  C   UNL     1     -22.123 -26.597  -3.782  1.00  0.00    -0.040 A 
ATOM      7  C   UNL     1     -21.220 -27.023  -2.797  1.00  0.00     0.004 A 
ATOM      8  C   UNL     1     -23.330 -26.006  -3.369  1.00  0.00     0.004 A 
ATOM      9  C   UNL     1     -21.511 -26.852  -1.440  1.00  0.00     0.000 A 
ATOM     10  C   UNL     1     -23.618 -25.834  -2.014  1.00  0.00     0.000 A 
ATOM     11  C   UNL     1     -22.707 -26.256  -1.050  1.00  0.00     0.000 A 
ENDBRANCH   1   6
BRANCH   1  12
ATOM     12  C   UNL     1     -23.079 -27.301  -6.014  1.00  0.00     0.088 A 
ATOM     13  C   UNL     1     -23.668 -26.618  -7.012  1.00  0.00     0.137 A 
ATOM     14  C   UNL     1     -23.642 -28.610  -5.592  1.00  0.00     0.343 A 
ATOM     15  C   UNL     1     -24.841 -27.140  -7.718  1.00  0.00     0.060 A 
ATOM     16  O   UNL     1     -24.842 -29.009  -6.166  1.00  0.00    -0.422 OA
ATOM     17  O   UNL     1     -23.096 -29.323  -4.757  1.00  0.00    -0.246 OA
ATOM     18  C   UNL     1     -25.417 -26.547  -8.850  1.00  0.00     0.016 A 
ATOM     19  C   UNL     1     -25.413 -28.315  -7.243  1.00  0.00     0.142 A 
ATOM     20  C   UNL     1     -26.553 -27.104  -9.449  1.00  0.00     0.001 A 
ATOM     21  C   UNL     1     -26.546 -28.882  -7.825  1.00  0.00     0.048 A 
ATOM     22  C   UNL     1     -27.123 -28.266  -8.932  1.00  0.00     0.004 A 
BRANCH  13  23
ATOM     23  O   UNL     1     -23.205 -25.368  -7.380  1.00  0.00    -0.507 OA
ATOM     24  H   UNL     1     -23.354 -25.251  -8.334  1.00  0.00     0.293 HD
ENDBRANCH  13  23
ENDBRANCH   1  12
TORSDOF 5
ENDMDL
MODEL 18
REMARK VINA RESULT:    -4.416      2.987      6.231
REMARK INTER + INTRA:          -6.215
REMARK INTER:                  -5.454
REMARK INTRA:                  -0.761
REMARK UNBOUND:                -0.637
REMARK SMILES CC(=O)C[C@H](c1ccccc1)c1c(O)c2ccccc2oc1=O
REMARK SMILES IDX 5 1 4 2 2 3 3 4 1 5 6 6 7 7 11 8 8 9 10 10 9 11 12 12 13 13
REMARK SMILES IDX 22 14 15 15 21 16 23 17 16 18 20 19 17 20 19 21 18 22 14 23
REMARK H PARENT 14 24
ROOT
ATOM      1  C   UNL     1     -23.302 -28.223  -2.625  1.00  0.00     0.068 C 
ENDROOT
BRANCH   1   2
ATOM      2  C   UNL     1     -24.005 -27.616  -3.855  1.00  0.00     0.088 C 
BRANCH   2   3
ATOM      3  C   UNL     1     -23.154 -26.525  -4.476  1.00  0.00     0.130 C 
ATOM      4  O   UNL     1     -23.501 -25.344  -4.433  1.00  0.00    -0.300 OA
ATOM      5  C   UNL     1     -21.855 -26.934  -5.118  1.00  0.00     0.087 C 
ENDBRANCH   2   3
ENDBRANCH   1   2
BRANCH   1   6
ATOM      6  C   UNL     1     -23.949 -29.518  -2.130  1.00  0.00    -0.040 A 
ATOM      7  C   UNL     1     -25.094 -30.066  -2.728  1.00  0.00     0.004 A 
ATOM      8  C   UNL     1     -23.394 -30.182  -1.022  1.00  0.00     0.004 A 
ATOM      9  C   UNL     1     -25.657 -31.249  -2.241  1.00  0.00     0.000 A 
ATOM     10  C   UNL     1     -23.957 -31.364  -0.538  1.00  0.00     0.000 A 
ATOM     11  C   UNL     1     -25.088 -31.898  -1.149  1.00  0.00     0.000 A 
ENDBRANCH   1   6
BRANCH   1  12
ATOM     12  C   UNL     1     -23.066 -27.240  -1.478  1.00  0.00     0.088 A 
ATOM     13  C   UNL     1     -24.079 -26.710  -0.769  1.00  0.00     0.137 A 
ATOM     14  C   UNL     1     -21.667 -26.854  -1.158  1.00  0.00     0.343 A 
ATOM     15  C   UNL     1     -23.842 -25.774   0.334  1.00  0.00     0.060 A 
ATOM     16  O   UNL     1     -21.477 -25.849  -0.218  1.00  0.00    -0.422 OA
ATOM     17  O   UNL     1     -20.700 -27.374  -1.703  1.00  0.00    -0.246 OA
ATOM     18  C   UNL     1     -24.838 -25.294   1.196  1.00  0.00     0.016 A 
ATOM     19  C   UNL     1     -22.537 -25.347   0.552  1.00  0.00     0.142 A 
ATOM     20  C   UNL     1     -24.524 -24.384   2.211  1.00  0.00     0.001 A 
ATOM     21  C   UNL     1     -22.208 -24.438   1.557  1.00  0.00     0.048 A 
ATOM     22  C   UNL     1     -23.211 -23.949   2.387  1.00  0.00     0.004 A 
BRANCH  13  23
ATOM     23  O   UNL     1     -25.392 -27.001  -1.088  1.00  0.00    -0.507 OA
ATOM     24  H   UNL     1     -25.828 -27.373  -0.302  1.00  0.00     0.293 HD
ENDBRANCH  13  23
ENDBRANCH   1  12
TORSDOF 5
ENDMDL
MODEL 19
REMARK VINA RESULT:    -4.414      3.493      5.739
REMARK INTER + INTRA:          -6.212
REMARK INTER:                  -5.503
REMARK INTRA:                  -0.709
REMARK UNBOUND:                -0.637
REMARK SMILES CC(=O)C[C@H](c1ccccc1)c1c(O)c2ccccc2oc1=O
REMARK SMILES IDX 5 1 4 2 2 3 3 4 1 5 6 6 7 7 11 8 8 9 10 10 9 11 12 12 13 13
REMARK SMILES IDX 22 14 15 15 21 16 23 17 16 18 20 19 17 20 19 21 18 22 14 23
REMARK H PARENT 14 24
ROOT
ATOM      1  C   UNL     1     -22.323 -27.336  -0.931  1.00  0.00     0.068 C 
ENDROOT
BRANCH   1   2
ATOM      2  C   UNL     1     -23.535 -28.049  -0.299  1.00  0.00     0.088 C 
BRANCH   2   3
ATOM      3  C   UNL     1     -23.436 -29.550  -0.492  1.00  0.00     0.130 C 
ATOM      4  O   UNL     1     -22.522 -30.049  -1.149  1.00  0.00    -0.300 OA
ATOM      5  C   UNL     1     -24.477 -30.409   0.175  1.00  0.00     0.087 C 
ENDBRANCH   2   3
ENDBRANCH   1   2
BRANCH   1   6
ATOM      6  C   UNL     1     -21.776 -26.191  -0.077  1.00  0.00    -0.040 A 
ATOM      7  C   UNL     1     -22.501 -25.626   0.983  1.00  0.00     0.004 A 
ATOM      8  C   UNL     1     -20.504 -25.667  -0.368  1.00  0.00     0.004 A 
ATOM      9  C   UNL     1     -21.966 -24.577   1.735  1.00  0.00     0.000 A 
ATOM     10  C   UNL     1     -19.970 -24.620   0.386  1.00  0.00     0.000 A 
ATOM     11  C   UNL     1     -20.701 -24.076   1.438  1.00  0.00     0.000 A 
ENDBRANCH   1   6
BRANCH   1  12
ATOM     12  C   UNL     1     -22.526 -26.905  -2.384  1.00  0.00     0.088 A 
ATOM     13  C   UNL     1     -21.750 -27.365  -3.382  1.00  0.00     0.137 A 
ATOM     14  C   UNL     1     -23.607 -25.932  -2.686  1.00  0.00     0.343 A 
ATOM     15  C   UNL     1     -21.956 -26.953  -4.773  1.00  0.00     0.060 A 
ATOM     16  O   UNL     1     -23.681 -25.436  -3.981  1.00  0.00    -0.422 OA
ATOM     17  O   UNL     1     -24.405 -25.550  -1.837  1.00  0.00    -0.246 OA
ATOM     18  C   UNL     1     -21.277 -27.496  -5.872  1.00  0.00     0.016 A 
ATOM     19  C   UNL     1     -22.904 -25.967  -5.021  1.00  0.00     0.142 A 
ATOM     20  C   UNL     1     -21.522 -27.025  -7.166  1.00  0.00     0.001 A 
ATOM     21  C   UNL     1     -23.159 -25.483  -6.305  1.00  0.00     0.048 A 
ATOM     22  C   UNL     1     -22.457 -26.013  -7.383  1.00  0.00     0.004 A 
BRANCH  13  23
ATOM     23  O   UNL     1     -20.696 -28.220  -3.119  1.00  0.00    -0.507 OA
ATOM     24  H   UNL     1     -20.919 -29.103  -3.461  1.00  0.00     0.293 HD
ENDBRANCH  13  23
ENDBRANCH   1  12
TORSDOF 5
ENDMDL
MODEL 20
REMARK VINA RESULT:    -4.372      3.371      6.876
REMARK INTER + INTRA:          -6.159
REMARK INTER:                  -5.423
REMARK INTRA:                  -0.736
REMARK UNBOUND:                -0.637
REMARK SMILES CC(=O)C[C@H](c1ccccc1)c1c(O)c2ccccc2oc1=O
REMARK SMILES IDX 5 1 4 2 2 3 3 4 1 5 6 6 7 7 11 8 8 9 10 10 9 11 12 12 13 13
REMARK SMILES IDX 22 14 15 15 21 16 23 17 16 18 20 19 17 20 19 21 18 22 14 23
REMARK H PARENT 14 24
ROOT
ATOM      1  C   UNL     1     -29.037 -23.015   2.050  1.00  0.00     0.068 C 
ENDROOT
BRANCH   1   2
ATOM      2  C   UNL     1     -29.901 -24.214   1.613  1.00  0.00     0.088 C 
BRANCH   2   3
ATOM      3  C   UNL     1     -30.589 -24.844   2.808  1.00  0.00     0.130 C 
ATOM      4  O   UNL     1     -31.007 -24.155   3.739  1.00  0.00    -0.300 OA
ATOM      5  C   UNL     1     -30.772 -26.339   2.799  1.00  0.00     0.087 C 
ENDBRANCH   2   3
ENDBRANCH   1   2
BRANCH   1   6
ATOM      6  C   UNL     1     -28.768 -22.014   0.925  1.00  0.00    -0.040 A 
ATOM      7  C   UNL     1     -28.074 -20.813   1.133  1.00  0.00     0.004 A 
ATOM      8  C   UNL     1     -29.247 -22.291  -0.368  1.00  0.00     0.004 A 
ATOM      9  C   UNL     1     -27.855 -19.923   0.078  1.00  0.00     0.000 A 
ATOM     10  C   UNL     1     -29.026 -21.402  -1.421  1.00  0.00     0.000 A 
ATOM     11  C   UNL     1     -28.328 -20.218  -1.197  1.00  0.00     0.000 A 
ENDBRANCH   1   6
BRANCH   1  12
ATOM     12  C   UNL     1     -27.750 -23.392   2.784  1.00  0.00     0.088 A 
ATOM     13  C   UNL     1     -26.813 -24.181   2.228  1.00  0.00     0.137 A 
ATOM     14  C   UNL     1     -27.548 -22.878   4.163  1.00  0.00     0.343 A 
ATOM     15  C   UNL     1     -25.579 -24.531   2.936  1.00  0.00     0.060 A 
ATOM     16  O   UNL     1     -26.451 -23.349   4.871  1.00  0.00    -0.422 OA
ATOM     17  O   UNL     1     -28.318 -22.080   4.687  1.00  0.00    -0.246 OA
ATOM     18  C   UNL     1     -24.507 -25.232   2.366  1.00  0.00     0.016 A 
ATOM     19  C   UNL     1     -25.455 -24.125   4.260  1.00  0.00     0.142 A 
ATOM     20  C   UNL     1     -23.373 -25.543   3.125  1.00  0.00     0.001 A 
ATOM     21  C   UNL     1     -24.334 -24.429   5.032  1.00  0.00     0.048 A 
ATOM     22  C   UNL     1     -23.289 -25.149   4.460  1.00  0.00     0.004 A 
BRANCH  13  23
ATOM     23  O   UNL     1     -27.005 -24.727   0.972  1.00  0.00    -0.507 OA
ATOM     24  H   UNL     1     -26.296 -24.412   0.385  1.00  0.00     0.293 HD
ENDBRANCH  13  23
ENDBRANCH   1  12
TORSDOF 5
ENDMDL
