MODEL 1
REMARK VINA RESULT:    -6.473      0.000      0.000
REMARK INTER + INTRA:          -9.756
REMARK INTER:                  -8.554
REMARK INTRA:                  -1.202
REMARK UNBOUND:                -1.202
REMARK SMILES CC(=O)C[C@H](c1ccc([N+](=O)[O-])cc1)c1c(O)c(=O)oc2ccccc12
REMARK SMILES IDX 5 1 6 2 7 3 8 4 9 5 14 6 13 7 10 8 11 9 12 10 15 11 16 12
REMARK SMILES IDX 26 13 18 14 25 15 21 16 19 17 20 18 24 19 22 20 23 21 17 22
REMARK SMILES IDX 4 24 2 25 3 26 1 27
REMARK H PARENT 17 23
ROOT
ATOM      1  C   UNL     1     -15.808  28.411 -23.329  1.00  0.00     0.061 C 
ENDROOT
BRANCH   1   2
ATOM      2  C   UNL     1     -14.363  27.964 -23.592  1.00  0.00    -0.039 A 
ATOM      3  C   UNL     1     -13.295  28.685 -23.029  1.00  0.00     0.011 A 
ATOM      4  C   UNL     1     -11.970  28.305 -23.263  1.00  0.00     0.086 A 
ATOM      5  C   UNL     1     -11.704  27.198 -24.075  1.00  0.00     0.269 A 
ATOM      6  C   UNL     1     -14.074  26.865 -24.419  1.00  0.00     0.011 A 
ATOM      7  C   UNL     1     -12.753  26.477 -24.657  1.00  0.00     0.086 A 
BRANCH   5   8
ATOM      8  N   UNL     1     -10.315  26.793 -24.324  1.00  0.00     0.062 N 
ATOM      9  O   UNL     1      -9.532  26.799 -23.364  1.00  0.00    -0.258 OA
ATOM     10  O   UNL     1     -10.007  26.467 -25.480  1.00  0.00    -0.258 OA
ENDBRANCH   5   8
ENDBRANCH   1   2
BRANCH   1  11
ATOM     11  C   UNL     1     -16.609  28.563 -24.641  1.00  0.00     0.020 A 
ATOM     12  C   UNL     1     -16.376  29.514 -25.567  1.00  0.00     0.206 A 
ATOM     13  C   UNL     1     -17.728  27.619 -24.912  1.00  0.00     0.025 A 
ATOM     14  C   UNL     1     -17.183  29.653 -26.807  1.00  0.00     0.379 A 
ATOM     15  C   UNL     1     -18.088  26.557 -24.067  1.00  0.00     0.012 A 
ATOM     16  C   UNL     1     -18.485  27.771 -26.077  1.00  0.00     0.139 A 
ATOM     17  O   UNL     1     -16.891  30.546 -27.601  1.00  0.00    -0.242 OA
ATOM     18  O   UNL     1     -18.224  28.784 -27.011  1.00  0.00    -0.420 OA
ATOM     19  C   UNL     1     -19.154  25.701 -24.377  1.00  0.00     0.001 A 
ATOM     20  C   UNL     1     -19.553  26.927 -26.400  1.00  0.00     0.048 A 
ATOM     21  C   UNL     1     -19.888  25.887 -25.543  1.00  0.00     0.004 A 
BRANCH  12  22
ATOM     22  O   UNL     1     -15.335  30.425 -25.441  1.00  0.00    -0.502 OA
ATOM     23  H   UNL     1     -14.749  30.053 -24.743  1.00  0.00     0.293 HD
ENDBRANCH  12  22
ENDBRANCH   1  11
BRANCH   1  24
ATOM     24  C   UNL     1     -15.811  29.630 -22.378  1.00  0.00     0.088 C 
BRANCH  24  25
ATOM     25  C   UNL     1     -16.577  29.369 -21.092  1.00  0.00     0.130 C 
ATOM     26  O   UNL     1     -16.031  29.343 -19.987  1.00  0.00    -0.300 OA
ATOM     27  C   UNL     1     -18.046  29.071 -21.236  1.00  0.00     0.087 C 
ENDBRANCH  24  25
ENDBRANCH   1  24
TORSDOF 6
ENDMDL
MODEL 2
REMARK VINA RESULT:    -6.379      1.645      3.093
REMARK INTER + INTRA:          -9.632
REMARK INTER:                  -8.735
REMARK INTRA:                  -0.898
REMARK UNBOUND:                -1.202
REMARK SMILES CC(=O)C[C@H](c1ccc([N+](=O)[O-])cc1)c1c(O)c(=O)oc2ccccc12
REMARK SMILES IDX 5 1 6 2 7 3 8 4 9 5 14 6 13 7 10 8 11 9 12 10 15 11 16 12
REMARK SMILES IDX 26 13 18 14 25 15 21 16 19 17 20 18 24 19 22 20 23 21 17 22
REMARK SMILES IDX 4 24 2 25 3 26 1 27
REMARK H PARENT 17 23
ROOT
ATOM      1  C   UNL     1     -16.506  27.948 -23.499  1.00  0.00     0.061 C 
ENDROOT
BRANCH   1   2
ATOM      2  C   UNL     1     -15.065  27.654 -23.941  1.00  0.00    -0.039 A 
ATOM      3  C   UNL     1     -14.730  26.377 -24.427  1.00  0.00     0.011 A 
ATOM      4  C   UNL     1     -13.423  26.081 -24.824  1.00  0.00     0.086 A 
ATOM      5  C   UNL     1     -12.435  27.066 -24.729  1.00  0.00     0.269 A 
ATOM      6  C   UNL     1     -14.054  28.624 -23.838  1.00  0.00     0.011 A 
ATOM      7  C   UNL     1     -12.745  28.338 -24.235  1.00  0.00     0.086 A 
BRANCH   5   8
ATOM      8  N   UNL     1     -11.060  26.762 -25.146  1.00  0.00     0.062 N 
ATOM      9  O   UNL     1     -10.736  27.038 -26.310  1.00  0.00    -0.258 OA
ATOM     10  O   UNL     1     -10.303  26.248 -24.309  1.00  0.00    -0.258 OA
ENDBRANCH   5   8
ENDBRANCH   1   2
BRANCH   1  11
ATOM     11  C   UNL     1     -17.520  27.675 -24.631  1.00  0.00     0.020 A 
ATOM     12  C   UNL     1     -18.456  26.705 -24.594  1.00  0.00     0.206 A 
ATOM     13  C   UNL     1     -17.468  28.513 -25.859  1.00  0.00     0.025 A 
ATOM     14  C   UNL     1     -19.401  26.448 -25.712  1.00  0.00     0.379 A 
ATOM     15  C   UNL     1     -16.575  29.580 -26.051  1.00  0.00     0.012 A 
ATOM     16  C   UNL     1     -18.356  28.251 -26.907  1.00  0.00     0.139 A 
ATOM     17  O   UNL     1     -20.229  25.547 -25.585  1.00  0.00    -0.242 OA
ATOM     18  O   UNL     1     -19.306  27.222 -26.840  1.00  0.00    -0.420 OA
ATOM     19  C   UNL     1     -16.573  30.333 -27.233  1.00  0.00     0.001 A 
ATOM     20  C   UNL     1     -18.367  28.992 -28.094  1.00  0.00     0.048 A 
ATOM     21  C   UNL     1     -17.469  30.039 -28.255  1.00  0.00     0.004 A 
BRANCH  12  22
ATOM     22  O   UNL     1     -18.624  25.886 -23.484  1.00  0.00    -0.502 OA
ATOM     23  H   UNL     1     -18.323  26.425 -22.718  1.00  0.00     0.293 HD
ENDBRANCH  12  22
ENDBRANCH   1  11
BRANCH   1  24
ATOM     24  C   UNL     1     -16.573  29.345 -22.838  1.00  0.00     0.088 C 
BRANCH  24  25
ATOM     25  C   UNL     1     -17.356  29.340 -21.536  1.00  0.00     0.130 C 
ATOM     26  O   UNL     1     -16.862  28.982 -20.466  1.00  0.00    -0.300 OA
ATOM     27  C   UNL     1     -18.806  29.736 -21.624  1.00  0.00     0.087 C 
ENDBRANCH  24  25
ENDBRANCH   1  24
TORSDOF 6
ENDMDL
MODEL 3
REMARK VINA RESULT:    -5.838      2.920      6.903
REMARK INTER + INTRA:          -8.917
REMARK INTER:                  -7.734
REMARK INTRA:                  -1.183
REMARK UNBOUND:                -1.202
REMARK SMILES CC(=O)C[C@H](c1ccc([N+](=O)[O-])cc1)c1c(O)c(=O)oc2ccccc12
REMARK SMILES IDX 5 1 6 2 7 3 8 4 9 5 14 6 13 7 10 8 11 9 12 10 15 11 16 12
REMARK SMILES IDX 26 13 18 14 25 15 21 16 19 17 20 18 24 19 22 20 23 21 17 22
REMARK SMILES IDX 4 24 2 25 3 26 1 27
REMARK H PARENT 17 23
ROOT
ATOM      1  C   UNL     1     -15.039  29.184 -24.618  1.00  0.00     0.061 C 
ENDROOT
BRANCH   1   2
ATOM      2  C   UNL     1     -16.417  28.511 -24.691  1.00  0.00    -0.039 A 
ATOM      3  C   UNL     1     -16.521  27.116 -24.556  1.00  0.00     0.011 A 
ATOM      4  C   UNL     1     -17.762  26.478 -24.630  1.00  0.00     0.086 A 
ATOM      5  C   UNL     1     -18.915  27.238 -24.851  1.00  0.00     0.269 A 
ATOM      6  C   UNL     1     -17.585  29.255 -24.929  1.00  0.00     0.011 A 
ATOM      7  C   UNL     1     -18.831  28.627 -25.004  1.00  0.00     0.086 A 
BRANCH   5   8
ATOM      8  N   UNL     1     -20.222  26.574 -24.930  1.00  0.00     0.062 N 
ATOM      9  O   UNL     1     -21.175  27.228 -25.377  1.00  0.00    -0.258 OA
ATOM     10  O   UNL     1     -20.296  25.398 -24.546  1.00  0.00    -0.258 OA
ENDBRANCH   5   8
ENDBRANCH   1   2
BRANCH   1  11
ATOM     11  C   UNL     1     -14.186  28.621 -23.461  1.00  0.00     0.020 A 
ATOM     12  C   UNL     1     -14.518  28.713 -22.158  1.00  0.00     0.206 A 
ATOM     13  C   UNL     1     -12.900  27.943 -23.782  1.00  0.00     0.025 A 
ATOM     14  C   UNL     1     -13.662  28.186 -21.064  1.00  0.00     0.379 A 
ATOM     15  C   UNL     1     -12.417  27.739 -25.084  1.00  0.00     0.012 A 
ATOM     16  C   UNL     1     -12.100  27.463 -22.740  1.00  0.00     0.139 A 
ATOM     17  O   UNL     1     -14.051  28.307 -19.903  1.00  0.00    -0.242 OA
ATOM     18  O   UNL     1     -12.471  27.592 -21.394  1.00  0.00    -0.420 OA
ATOM     19  C   UNL     1     -11.195  27.094 -25.322  1.00  0.00     0.001 A 
ATOM     20  C   UNL     1     -10.878  26.819 -22.960  1.00  0.00     0.048 A 
ATOM     21  C   UNL     1     -10.425  26.635 -24.260  1.00  0.00     0.004 A 
BRANCH  12  22
ATOM     22  O   UNL     1     -15.712  29.289 -21.741  1.00  0.00    -0.502 OA
ATOM     23  H   UNL     1     -15.487  30.223 -21.528  1.00  0.00     0.293 HD
ENDBRANCH  12  22
ENDBRANCH   1  11
BRANCH   1  24
ATOM     24  C   UNL     1     -15.207  30.721 -24.662  1.00  0.00     0.088 C 
BRANCH  24  25
ATOM     25  C   UNL     1     -14.611  31.341 -25.915  1.00  0.00     0.130 C 
ATOM     26  O   UNL     1     -14.523  32.559 -26.075  1.00  0.00    -0.300 OA
ATOM     27  C   UNL     1     -14.189  30.386 -26.999  1.00  0.00     0.087 C 
ENDBRANCH  24  25
ENDBRANCH   1  24
TORSDOF 6
ENDMDL
MODEL 4
REMARK VINA RESULT:    -5.774      1.514      3.552
REMARK INTER + INTRA:          -8.833
REMARK INTER:                  -8.372
REMARK INTRA:                  -0.461
REMARK UNBOUND:                -1.202
REMARK SMILES CC(=O)C[C@H](c1ccc([N+](=O)[O-])cc1)c1c(O)c(=O)oc2ccccc12
REMARK SMILES IDX 5 1 6 2 7 3 8 4 9 5 14 6 13 7 10 8 11 9 12 10 15 11 16 12
REMARK SMILES IDX 26 13 18 14 25 15 21 16 19 17 20 18 24 19 22 20 23 21 17 22
REMARK SMILES IDX 4 24 2 25 3 26 1 27
REMARK H PARENT 17 23
ROOT
ATOM      1  C   UNL     1     -16.027  29.436 -24.896  1.00  0.00     0.061 C 
ENDROOT
BRANCH   1   2
ATOM      2  C   UNL     1     -14.696  28.672 -24.932  1.00  0.00    -0.039 A 
ATOM      3  C   UNL     1     -13.568  29.262 -25.529  1.00  0.00     0.011 A 
ATOM      4  C   UNL     1     -12.348  28.583 -25.585  1.00  0.00     0.086 A 
ATOM      5  C   UNL     1     -12.251  27.296 -25.048  1.00  0.00     0.269 A 
ATOM      6  C   UNL     1     -14.582  27.371 -24.413  1.00  0.00     0.011 A 
ATOM      7  C   UNL     1     -13.366  26.685 -24.462  1.00  0.00     0.086 A 
BRANCH   5   8
ATOM      8  N   UNL     1     -10.972  26.577 -25.102  1.00  0.00     0.062 N 
ATOM      9  O   UNL     1     -10.347  26.590 -26.172  1.00  0.00    -0.258 OA
ATOM     10  O   UNL     1     -10.589  26.000 -24.073  1.00  0.00    -0.258 OA
ENDBRANCH   5   8
ENDBRANCH   1   2
BRANCH   1  11
ATOM     11  C   UNL     1     -16.997  28.848 -23.848  1.00  0.00     0.020 A 
ATOM     12  C   UNL     1     -16.967  29.147 -22.534  1.00  0.00     0.206 A 
ATOM     13  C   UNL     1     -18.030  27.872 -24.293  1.00  0.00     0.025 A 
ATOM     14  C   UNL     1     -17.896  28.544 -21.544  1.00  0.00     0.379 A 
ATOM     15  C   UNL     1     -18.216  27.471 -25.625  1.00  0.00     0.012 A 
ATOM     16  C   UNL     1     -18.888  27.305 -23.347  1.00  0.00     0.139 A 
ATOM     17  O   UNL     1     -17.801  28.885 -20.365  1.00  0.00    -0.242 OA
ATOM     18  O   UNL     1     -18.817  27.628 -21.984  1.00  0.00    -0.420 OA
ATOM     19  C   UNL     1     -19.207  26.546 -25.982  1.00  0.00     0.001 A 
ATOM     20  C   UNL     1     -19.881  26.379 -23.686  1.00  0.00     0.048 A 
ATOM     21  C   UNL     1     -20.039  25.998 -25.012  1.00  0.00     0.004 A 
BRANCH  12  22
ATOM     22  O   UNL     1     -16.073  30.073 -22.010  1.00  0.00    -0.502 OA
ATOM     23  H   UNL     1     -15.180  29.701 -22.191  1.00  0.00     0.293 HD
ENDBRANCH  12  22
ENDBRANCH   1  11
BRANCH   1  24
ATOM     24  C   UNL     1     -16.579  29.589 -26.333  1.00  0.00     0.088 C 
BRANCH  24  25
ATOM     25  C   UNL     1     -17.078  30.995 -26.623  1.00  0.00     0.130 C 
ATOM     26  O   UNL     1     -16.364  31.862 -27.128  1.00  0.00    -0.300 OA
ATOM     27  C   UNL     1     -18.488  31.306 -26.196  1.00  0.00     0.087 C 
ENDBRANCH  24  25
ENDBRANCH   1  24
TORSDOF 6
ENDMDL
MODEL 5
REMARK VINA RESULT:    -5.722      7.069     11.156
REMARK INTER + INTRA:          -8.763
REMARK INTER:                  -7.625
REMARK INTRA:                  -1.138
REMARK UNBOUND:                -1.202
REMARK SMILES CC(=O)C[C@H](c1ccc([N+](=O)[O-])cc1)c1c(O)c(=O)oc2ccccc12
REMARK SMILES IDX 5 1 6 2 7 3 8 4 9 5 14 6 13 7 10 8 11 9 12 10 15 11 16 12
REMARK SMILES IDX 26 13 18 14 25 15 21 16 19 17 20 18 24 19 22 20 23 21 17 22
REMARK SMILES IDX 4 24 2 25 3 26 1 27
REMARK H PARENT 17 23
ROOT
ATOM      1  C   UNL     1      -6.942  28.881 -28.250  1.00  0.00     0.061 C 
ENDROOT
BRANCH   1   2
ATOM      2  C   UNL     1      -7.950  28.214 -27.304  1.00  0.00    -0.039 A 
ATOM      3  C   UNL     1      -9.142  27.675 -27.821  1.00  0.00     0.011 A 
ATOM      4  C   UNL     1     -10.081  27.072 -26.980  1.00  0.00     0.086 A 
ATOM      5  C   UNL     1      -9.836  27.013 -25.604  1.00  0.00     0.269 A 
ATOM      6  C   UNL     1      -7.731  28.159 -25.917  1.00  0.00     0.011 A 
ATOM      7  C   UNL     1      -8.663  27.557 -25.068  1.00  0.00     0.086 A 
BRANCH   5   8
ATOM      8  N   UNL     1     -10.818  26.381 -24.715  1.00  0.00     0.062 N 
ATOM      9  O   UNL     1     -10.417  25.957 -23.621  1.00  0.00    -0.258 OA
ATOM     10  O   UNL     1     -11.992  26.309 -25.108  1.00  0.00    -0.258 OA
ENDBRANCH   5   8
ENDBRANCH   1   2
BRANCH   1  11
ATOM     11  C   UNL     1      -6.169  27.842 -29.090  1.00  0.00     0.020 A 
ATOM     12  C   UNL     1      -5.308  26.940 -28.578  1.00  0.00     0.206 A 
ATOM     13  C   UNL     1      -6.357  27.830 -30.567  1.00  0.00     0.025 A 
ATOM     14  C   UNL     1      -4.556  25.971 -29.415  1.00  0.00     0.379 A 
ATOM     15  C   UNL     1      -7.233  28.681 -31.259  1.00  0.00     0.012 A 
ATOM     16  C   UNL     1      -5.633  26.919 -31.342  1.00  0.00     0.139 A 
ATOM     17  O   UNL     1      -3.798  25.177 -28.858  1.00  0.00    -0.242 OA
ATOM     18  O   UNL     1      -4.732  26.005 -30.775  1.00  0.00    -0.420 OA
ATOM     19  C   UNL     1      -7.365  28.621 -32.654  1.00  0.00     0.001 A 
ATOM     20  C   UNL     1      -5.752  26.848 -32.734  1.00  0.00     0.048 A 
ATOM     21  C   UNL     1      -6.624  27.706 -33.391  1.00  0.00     0.004 A 
BRANCH  12  22
ATOM     22  O   UNL     1      -5.081  26.833 -27.211  1.00  0.00    -0.502 OA
ATOM     23  H   UNL     1      -4.124  26.623 -27.124  1.00  0.00     0.293 HD
ENDBRANCH  12  22
ENDBRANCH   1  11
BRANCH   1  24
ATOM     24  C   UNL     1      -6.087  29.902 -27.463  1.00  0.00     0.088 C 
BRANCH  24  25
ATOM     25  C   UNL     1      -5.043  30.585 -28.330  1.00  0.00     0.130 C 
ATOM     26  O   UNL     1      -3.833  30.405 -28.179  1.00  0.00    -0.300 OA
ATOM     27  C   UNL     1      -5.557  31.559 -29.357  1.00  0.00     0.087 C 
ENDBRANCH  24  25
ENDBRANCH   1  24
TORSDOF 6
ENDMDL
MODEL 6
REMARK VINA RESULT:    -5.541      2.175      4.534
REMARK INTER + INTRA:          -8.524
REMARK INTER:                  -7.404
REMARK INTRA:                  -1.120
REMARK UNBOUND:                -1.202
REMARK SMILES CC(=O)C[C@H](c1ccc([N+](=O)[O-])cc1)c1c(O)c(=O)oc2ccccc12
REMARK SMILES IDX 5 1 6 2 7 3 8 4 9 5 14 6 13 7 10 8 11 9 12 10 15 11 16 12
REMARK SMILES IDX 26 13 18 14 25 15 21 16 19 17 20 18 24 19 22 20 23 21 17 22
REMARK SMILES IDX 4 24 2 25 3 26 1 27
REMARK H PARENT 17 23
ROOT
ATOM      1  C   UNL     1     -15.399  28.419 -24.204  1.00  0.00     0.061 C 
ENDROOT
BRANCH   1   2
ATOM      2  C   UNL     1     -13.886  28.254 -24.400  1.00  0.00    -0.039 A 
ATOM      3  C   UNL     1     -13.344  26.974 -24.618  1.00  0.00     0.011 A 
ATOM      4  C   UNL     1     -11.969  26.796 -24.788  1.00  0.00     0.086 A 
ATOM      5  C   UNL     1     -11.118  27.905 -24.731  1.00  0.00     0.269 A 
ATOM      6  C   UNL     1     -13.012  29.353 -24.330  1.00  0.00     0.011 A 
ATOM      7  C   UNL     1     -11.635  29.185 -24.500  1.00  0.00     0.086 A 
BRANCH   5   8
ATOM      8  N   UNL     1      -9.672  27.725 -24.909  1.00  0.00     0.062 N 
ATOM      9  O   UNL     1      -9.042  28.637 -25.463  1.00  0.00    -0.258 OA
ATOM     10  O   UNL     1      -9.166  26.673 -24.493  1.00  0.00    -0.258 OA
ENDBRANCH   5   8
ENDBRANCH   1   2
BRANCH   1  11
ATOM     11  C   UNL     1     -15.727  29.227 -22.930  1.00  0.00     0.020 A 
ATOM     12  C   UNL     1     -15.314  28.894 -21.690  1.00  0.00     0.206 A 
ATOM     13  C   UNL     1     -16.570  30.448 -23.052  1.00  0.00     0.025 A 
ATOM     14  C   UNL     1     -15.671  29.676 -20.479  1.00  0.00     0.379 A 
ATOM     15  C   UNL     1     -17.062  30.951 -24.267  1.00  0.00     0.012 A 
ATOM     16  C   UNL     1     -16.906  31.167 -21.901  1.00  0.00     0.139 A 
ATOM     17  O   UNL     1     -15.239  29.301 -19.389  1.00  0.00    -0.242 OA
ATOM     18  O   UNL     1     -16.471  30.780 -20.625  1.00  0.00    -0.420 OA
ATOM     19  C   UNL     1     -17.852  32.108 -24.317  1.00  0.00     0.001 A 
ATOM     20  C   UNL     1     -17.695  32.322 -21.933  1.00  0.00     0.048 A 
ATOM     21  C   UNL     1     -18.170  32.793 -23.150  1.00  0.00     0.004 A 
BRANCH  12  22
ATOM     22  O   UNL     1     -14.492  27.797 -21.459  1.00  0.00    -0.502 OA
ATOM     23  H   UNL     1     -13.574  28.143 -21.533  1.00  0.00     0.293 HD
ENDBRANCH  12  22
ENDBRANCH   1  11
BRANCH   1  24
ATOM     24  C   UNL     1     -16.095  27.045 -24.344  1.00  0.00     0.088 C 
BRANCH  24  25
ATOM     25  C   UNL     1     -17.611  27.153 -24.346  1.00  0.00     0.130 C 
ATOM     26  O   UNL     1     -18.302  26.821 -23.381  1.00  0.00    -0.300 OA
ATOM     27  C   UNL     1     -18.247  27.628 -25.625  1.00  0.00     0.087 C 
ENDBRANCH  24  25
ENDBRANCH   1  24
TORSDOF 6
ENDMDL
MODEL 7
REMARK VINA RESULT:    -5.388      2.358      5.042
REMARK INTER + INTRA:          -8.323
REMARK INTER:                  -7.254
REMARK INTRA:                  -1.069
REMARK UNBOUND:                -1.202
REMARK SMILES CC(=O)C[C@H](c1ccc([N+](=O)[O-])cc1)c1c(O)c(=O)oc2ccccc12
REMARK SMILES IDX 5 1 6 2 7 3 8 4 9 5 14 6 13 7 10 8 11 9 12 10 15 11 16 12
REMARK SMILES IDX 26 13 18 14 25 15 21 16 19 17 20 18 24 19 22 20 23 21 17 22
REMARK SMILES IDX 4 24 2 25 3 26 1 27
REMARK H PARENT 17 23
ROOT
ATOM      1  C   UNL     1     -14.487  28.180 -24.340  1.00  0.00     0.061 C 
ENDROOT
BRANCH   1   2
ATOM      2  C   UNL     1     -14.414  28.475 -22.836  1.00  0.00    -0.039 A 
ATOM      3  C   UNL     1     -13.433  27.848 -22.047  1.00  0.00     0.011 A 
ATOM      4  C   UNL     1     -13.354  28.091 -20.673  1.00  0.00     0.086 A 
ATOM      5  C   UNL     1     -14.268  28.963 -20.074  1.00  0.00     0.269 A 
ATOM      6  C   UNL     1     -15.334  29.335 -22.211  1.00  0.00     0.011 A 
ATOM      7  C   UNL     1     -15.262  29.585 -20.839  1.00  0.00     0.086 A 
BRANCH   5   8
ATOM      8  N   UNL     1     -14.190  29.223 -18.631  1.00  0.00     0.062 N 
ATOM      9  O   UNL     1     -15.132  28.839 -17.924  1.00  0.00    -0.258 OA
ATOM     10  O   UNL     1     -13.185  29.811 -18.204  1.00  0.00    -0.258 OA
ENDBRANCH   5   8
ENDBRANCH   1   2
BRANCH   1  11
ATOM     11  C   UNL     1     -15.936  28.245 -24.869  1.00  0.00     0.020 A 
ATOM     12  C   UNL     1     -16.842  27.257 -24.725  1.00  0.00     0.206 A 
ATOM     13  C   UNL     1     -16.379  29.461 -25.603  1.00  0.00     0.025 A 
ATOM     14  C   UNL     1     -18.222  27.336 -25.270  1.00  0.00     0.379 A 
ATOM     15  C   UNL     1     -15.573  30.591 -25.819  1.00  0.00     0.012 A 
ATOM     16  C   UNL     1     -17.677  29.516 -26.120  1.00  0.00     0.139 A 
ATOM     17  O   UNL     1     -18.984  26.388 -25.082  1.00  0.00    -0.242 OA
ATOM     18  O   UNL     1     -18.587  28.460 -25.965  1.00  0.00    -0.420 OA
ATOM     19  C   UNL     1     -16.048  31.708 -26.521  1.00  0.00     0.001 A 
ATOM     20  C   UNL     1     -18.165  30.622 -26.824  1.00  0.00     0.048 A 
ATOM     21  C   UNL     1     -17.344  31.723 -27.025  1.00  0.00     0.004 A 
BRANCH  12  22
ATOM     22  O   UNL     1     -16.555  26.091 -24.025  1.00  0.00    -0.502 OA
ATOM     23  H   UNL     1     -17.065  25.384 -24.481  1.00  0.00     0.293 HD
ENDBRANCH  12  22
ENDBRANCH   1  11
BRANCH   1  24
ATOM     24  C   UNL     1     -13.698  26.888 -24.656  1.00  0.00     0.088 C 
BRANCH  24  25
ATOM     25  C   UNL     1     -12.429  27.154 -25.450  1.00  0.00     0.130 C 
ATOM     26  O   UNL     1     -11.419  26.458 -25.339  1.00  0.00    -0.300 OA
ATOM     27  C   UNL     1     -12.439  28.367 -26.342  1.00  0.00     0.087 C 
ENDBRANCH  24  25
ENDBRANCH   1  24
TORSDOF 6
ENDMDL
MODEL 8
REMARK VINA RESULT:    -5.344      2.909      4.871
REMARK INTER + INTRA:          -8.264
REMARK INTER:                  -7.211
REMARK INTRA:                  -1.053
REMARK UNBOUND:                -1.202
REMARK SMILES CC(=O)C[C@H](c1ccc([N+](=O)[O-])cc1)c1c(O)c(=O)oc2ccccc12
REMARK SMILES IDX 5 1 6 2 7 3 8 4 9 5 14 6 13 7 10 8 11 9 12 10 15 11 16 12
REMARK SMILES IDX 26 13 18 14 25 15 21 16 19 17 20 18 24 19 22 20 23 21 17 22
REMARK SMILES IDX 4 24 2 25 3 26 1 27
REMARK H PARENT 17 23
ROOT
ATOM      1  C   UNL     1     -17.947  28.487 -24.974  1.00  0.00     0.061 C 
ENDROOT
BRANCH   1   2
ATOM      2  C   UNL     1     -16.489  28.398 -24.503  1.00  0.00    -0.039 A 
ATOM      3  C   UNL     1     -15.789  29.571 -24.169  1.00  0.00     0.011 A 
ATOM      4  C   UNL     1     -14.458  29.517 -23.749  1.00  0.00     0.086 A 
ATOM      5  C   UNL     1     -13.810  28.280 -23.668  1.00  0.00     0.269 A 
ATOM      6  C   UNL     1     -15.815  27.166 -24.431  1.00  0.00     0.011 A 
ATOM      7  C   UNL     1     -14.484  27.102 -24.010  1.00  0.00     0.086 A 
BRANCH   5   8
ATOM      8  N   UNL     1     -12.411  28.217 -23.226  1.00  0.00     0.062 N 
ATOM      9  O   UNL     1     -11.585  27.710 -23.998  1.00  0.00    -0.258 OA
ATOM     10  O   UNL     1     -12.138  28.676 -22.108  1.00  0.00    -0.258 OA
ENDBRANCH   5   8
ENDBRANCH   1   2
BRANCH   1  11
ATOM     11  C   UNL     1     -18.879  29.010 -23.860  1.00  0.00     0.020 A 
ATOM     12  C   UNL     1     -19.162  28.335 -22.727  1.00  0.00     0.206 A 
ATOM     13  C   UNL     1     -19.533  30.335 -24.034  1.00  0.00     0.025 A 
ATOM     14  C   UNL     1     -20.086  28.852 -21.685  1.00  0.00     0.379 A 
ATOM     15  C   UNL     1     -19.330  31.178 -25.139  1.00  0.00     0.012 A 
ATOM     16  C   UNL     1     -20.410  30.802 -23.050  1.00  0.00     0.139 A 
ATOM     17  O   UNL     1     -20.277  28.171 -20.678  1.00  0.00    -0.242 OA
ATOM     18  O   UNL     1     -20.693  30.064 -21.891  1.00  0.00    -0.420 OA
ATOM     19  C   UNL     1     -19.977  32.417 -25.247  1.00  0.00     0.001 A 
ATOM     20  C   UNL     1     -21.065  32.035 -23.143  1.00  0.00     0.048 A 
ATOM     21  C   UNL     1     -20.845  32.845 -24.249  1.00  0.00     0.004 A 
BRANCH  12  22
ATOM     22  O   UNL     1     -18.580  27.107 -22.438  1.00  0.00    -0.502 OA
ATOM     23  H   UNL     1     -17.740  27.322 -21.974  1.00  0.00     0.293 HD
ENDBRANCH  12  22
ENDBRANCH   1  11
BRANCH   1  24
ATOM     24  C   UNL     1     -18.360  27.156 -25.646  1.00  0.00     0.088 C 
BRANCH  24  25
ATOM     25  C   UNL     1     -19.858  27.057 -25.880  1.00  0.00     0.130 C 
ATOM     26  O   UNL     1     -20.469  27.838 -26.612  1.00  0.00    -0.300 OA
ATOM     27  C   UNL     1     -20.587  25.986 -25.112  1.00  0.00     0.087 C 
ENDBRANCH  24  25
ENDBRANCH   1  24
TORSDOF 6
ENDMDL
MODEL 9
REMARK VINA RESULT:    -5.318      3.202      6.514
REMARK INTER + INTRA:          -8.230
REMARK INTER:                  -7.337
REMARK INTRA:                  -0.893
REMARK UNBOUND:                -1.202
REMARK SMILES CC(=O)C[C@H](c1ccc([N+](=O)[O-])cc1)c1c(O)c(=O)oc2ccccc12
REMARK SMILES IDX 5 1 6 2 7 3 8 4 9 5 14 6 13 7 10 8 11 9 12 10 15 11 16 12
REMARK SMILES IDX 26 13 18 14 25 15 21 16 19 17 20 18 24 19 22 20 23 21 17 22
REMARK SMILES IDX 4 24 2 25 3 26 1 27
REMARK H PARENT 17 23
ROOT
ATOM      1  C   UNL     1     -14.271  29.251 -24.572  1.00  0.00     0.061 C 
ENDROOT
BRANCH   1   2
ATOM      2  C   UNL     1     -15.607  28.558 -24.870  1.00  0.00    -0.039 A 
ATOM      3  C   UNL     1     -16.546  29.181 -25.712  1.00  0.00     0.011 A 
ATOM      4  C   UNL     1     -17.774  28.576 -25.990  1.00  0.00     0.086 A 
ATOM      5  C   UNL     1     -18.078  27.338 -25.415  1.00  0.00     0.269 A 
ATOM      6  C   UNL     1     -15.939  27.322 -24.289  1.00  0.00     0.011 A 
ATOM      7  C   UNL     1     -17.164  26.708 -24.562  1.00  0.00     0.086 A 
BRANCH   5   8
ATOM      8  N   UNL     1     -19.367  26.696 -25.703  1.00  0.00     0.062 N 
ATOM      9  O   UNL     1     -19.661  25.679 -25.060  1.00  0.00    -0.258 OA
ATOM     10  O   UNL     1     -20.086  27.211 -26.572  1.00  0.00    -0.258 OA
ENDBRANCH   5   8
ENDBRANCH   1   2
BRANCH   1  11
ATOM     11  C   UNL     1     -13.067  28.389 -25.009  1.00  0.00     0.020 A 
ATOM     12  C   UNL     1     -12.390  27.559 -24.190  1.00  0.00     0.206 A 
ATOM     13  C   UNL     1     -12.595  28.477 -26.418  1.00  0.00     0.025 A 
ATOM     14  C   UNL     1     -11.217  26.763 -24.633  1.00  0.00     0.379 A 
ATOM     15  C   UNL     1     -13.200  29.270 -27.406  1.00  0.00     0.012 A 
ATOM     16  C   UNL     1     -11.482  27.731 -26.816  1.00  0.00     0.139 A 
ATOM     17  O   UNL     1     -10.666  26.023 -23.818  1.00  0.00    -0.242 OA
ATOM     18  O   UNL     1     -10.792  26.889 -25.931  1.00  0.00    -0.420 OA
ATOM     19  C   UNL     1     -12.707  29.312 -28.718  1.00  0.00     0.001 A 
ATOM     20  C   UNL     1     -10.977  27.762 -28.120  1.00  0.00     0.048 A 
ATOM     21  C   UNL     1     -11.594  28.559 -29.075  1.00  0.00     0.004 A 
BRANCH  12  22
ATOM     22  O   UNL     1     -12.763  27.365 -22.866  1.00  0.00    -0.502 OA
ATOM     23  H   UNL     1     -11.948  27.533 -22.341  1.00  0.00     0.293 HD
ENDBRANCH  12  22
ENDBRANCH   1  11
BRANCH   1  24
ATOM     24  C   UNL     1     -14.260  29.754 -23.109  1.00  0.00     0.088 C 
BRANCH  24  25
ATOM     25  C   UNL     1     -13.145  30.752 -22.840  1.00  0.00     0.130 C 
ATOM     26  O   UNL     1     -12.125  30.454 -22.216  1.00  0.00    -0.300 OA
ATOM     27  C   UNL     1     -13.376  32.160 -23.320  1.00  0.00     0.087 C 
ENDBRANCH  24  25
ENDBRANCH   1  24
TORSDOF 6
ENDMDL
MODEL 10
REMARK VINA RESULT:    -5.291      3.027      6.650
REMARK INTER + INTRA:          -8.194
REMARK INTER:                  -7.145
REMARK INTRA:                  -1.049
REMARK UNBOUND:                -1.202
REMARK SMILES CC(=O)C[C@H](c1ccc([N+](=O)[O-])cc1)c1c(O)c(=O)oc2ccccc12
REMARK SMILES IDX 5 1 6 2 7 3 8 4 9 5 14 6 13 7 10 8 11 9 12 10 15 11 16 12
REMARK SMILES IDX 26 13 18 14 25 15 21 16 19 17 20 18 24 19 22 20 23 21 17 22
REMARK SMILES IDX 4 24 2 25 3 26 1 27
REMARK H PARENT 17 23
ROOT
ATOM      1  C   UNL     1     -15.599  29.279 -23.183  1.00  0.00     0.061 C 
ENDROOT
BRANCH   1   2
ATOM      2  C   UNL     1     -16.896  28.979 -23.947  1.00  0.00    -0.039 A 
ATOM      3  C   UNL     1     -18.012  28.473 -23.258  1.00  0.00     0.011 A 
ATOM      4  C   UNL     1     -19.201  28.182 -23.934  1.00  0.00     0.086 A 
ATOM      5  C   UNL     1     -19.276  28.388 -25.315  1.00  0.00     0.269 A 
ATOM      6  C   UNL     1     -16.987  29.164 -25.337  1.00  0.00     0.011 A 
ATOM      7  C   UNL     1     -18.171  28.877 -26.022  1.00  0.00     0.086 A 
BRANCH   5   8
ATOM      8  N   UNL     1     -20.522  28.085 -26.031  1.00  0.00     0.062 N 
ATOM      9  O   UNL     1     -20.579  28.369 -27.235  1.00  0.00    -0.258 OA
ATOM     10  O   UNL     1     -21.444  27.560 -25.389  1.00  0.00    -0.258 OA
ENDBRANCH   5   8
ENDBRANCH   1   2
BRANCH   1  11
ATOM     11  C   UNL     1     -14.371  28.635 -23.862  1.00  0.00     0.020 A 
ATOM     12  C   UNL     1     -14.246  27.317 -24.115  1.00  0.00     0.206 A 
ATOM     13  C   UNL     1     -13.229  29.506 -24.254  1.00  0.00     0.025 A 
ATOM     14  C   UNL     1     -13.039  26.722 -24.745  1.00  0.00     0.379 A 
ATOM     15  C   UNL     1     -13.204  30.900 -24.087  1.00  0.00     0.012 A 
ATOM     16  C   UNL     1     -12.095  28.930 -24.835  1.00  0.00     0.139 A 
ATOM     17  O   UNL     1     -13.019  25.509 -24.947  1.00  0.00    -0.242 OA
ATOM     18  O   UNL     1     -11.995  27.550 -25.069  1.00  0.00    -0.420 OA
ATOM     19  C   UNL     1     -12.097  31.667 -24.477  1.00  0.00     0.001 A 
ATOM     20  C   UNL     1     -10.982  29.680 -25.228  1.00  0.00     0.048 A 
ATOM     21  C   UNL     1     -10.985  31.057 -25.046  1.00  0.00     0.004 A 
BRANCH  12  22
ATOM     22  O   UNL     1     -15.263  26.413 -23.828  1.00  0.00    -0.502 OA
ATOM     23  H   UNL     1     -14.810  25.549 -23.697  1.00  0.00     0.293 HD
ENDBRANCH  12  22
ENDBRANCH   1  11
BRANCH   1  24
ATOM     24  C   UNL     1     -15.796  28.965 -21.681  1.00  0.00     0.088 C 
BRANCH  24  25
ATOM     25  C   UNL     1     -14.481  28.869 -20.924  1.00  0.00     0.130 C 
ATOM     26  O   UNL     1     -13.982  27.791 -20.596  1.00  0.00    -0.300 OA
ATOM     27  C   UNL     1     -13.838  30.171 -20.529  1.00  0.00     0.087 C 
ENDBRANCH  24  25
ENDBRANCH   1  24
TORSDOF 6
ENDMDL
MODEL 11
REMARK VINA RESULT:    -5.216      3.907      6.948
REMARK INTER + INTRA:          -8.095
REMARK INTER:                  -7.095
REMARK INTRA:                  -1.000
REMARK UNBOUND:                -1.202
REMARK SMILES CC(=O)C[C@H](c1ccc([N+](=O)[O-])cc1)c1c(O)c(=O)oc2ccccc12
REMARK SMILES IDX 5 1 6 2 7 3 8 4 9 5 14 6 13 7 10 8 11 9 12 10 15 11 16 12
REMARK SMILES IDX 26 13 18 14 25 15 21 16 19 17 20 18 24 19 22 20 23 21 17 22
REMARK SMILES IDX 4 24 2 25 3 26 1 27
REMARK H PARENT 17 23
ROOT
ATOM      1  C   UNL     1     -18.938  29.024 -27.423  1.00  0.00     0.061 C 
ENDROOT
BRANCH   1   2
ATOM      2  C   UNL     1     -18.547  28.446 -28.790  1.00  0.00    -0.039 A 
ATOM      3  C   UNL     1     -17.345  28.848 -29.401  1.00  0.00     0.011 A 
ATOM      4  C   UNL     1     -16.972  28.345 -30.651  1.00  0.00     0.086 A 
ATOM      5  C   UNL     1     -17.810  27.438 -31.306  1.00  0.00     0.269 A 
ATOM      6  C   UNL     1     -19.382  27.546 -29.473  1.00  0.00     0.011 A 
ATOM      7  C   UNL     1     -19.018  27.037 -30.722  1.00  0.00     0.086 A 
BRANCH   5   8
ATOM      8  N   UNL     1     -17.424  26.906 -32.619  1.00  0.00     0.062 N 
ATOM      9  O   UNL     1     -17.544  25.687 -32.805  1.00  0.00    -0.258 OA
ATOM     10  O   UNL     1     -17.003  27.707 -33.466  1.00  0.00    -0.258 OA
ENDBRANCH   5   8
ENDBRANCH   1   2
BRANCH   1  11
ATOM     11  C   UNL     1     -18.385  28.170 -26.261  1.00  0.00     0.020 A 
ATOM     12  C   UNL     1     -18.984  27.063 -25.780  1.00  0.00     0.206 A 
ATOM     13  C   UNL     1     -17.119  28.590 -25.601  1.00  0.00     0.025 A 
ATOM     14  C   UNL     1     -18.443  26.278 -24.640  1.00  0.00     0.379 A 
ATOM     15  C   UNL     1     -16.354  29.702 -25.991  1.00  0.00     0.012 A 
ATOM     16  C   UNL     1     -16.629  27.848 -24.522  1.00  0.00     0.139 A 
ATOM     17  O   UNL     1     -19.054  25.274 -24.276  1.00  0.00    -0.242 OA
ATOM     18  O   UNL     1     -17.289  26.709 -24.038  1.00  0.00    -0.420 OA
ATOM     19  C   UNL     1     -15.168  30.047 -25.329  1.00  0.00     0.001 A 
ATOM     20  C   UNL     1     -15.448  28.180 -23.849  1.00  0.00     0.048 A 
ATOM     21  C   UNL     1     -14.716  29.287 -24.256  1.00  0.00     0.004 A 
BRANCH  12  22
ATOM     22  O   UNL     1     -20.150  26.554 -26.341  1.00  0.00    -0.502 OA
ATOM     23  H   UNL     1     -20.206  26.964 -27.233  1.00  0.00     0.293 HD
ENDBRANCH  12  22
ENDBRANCH   1  11
BRANCH   1  24
ATOM     24  C   UNL     1     -20.456  29.319 -27.397  1.00  0.00     0.088 C 
BRANCH  24  25
ATOM     25  C   UNL     1     -20.938  29.794 -26.036  1.00  0.00     0.130 C 
ATOM     26  O   UNL     1     -21.734  29.149 -25.352  1.00  0.00    -0.300 OA
ATOM     27  C   UNL     1     -20.443  31.142 -25.584  1.00  0.00     0.087 C 
ENDBRANCH  24  25
ENDBRANCH   1  24
TORSDOF 6
ENDMDL
MODEL 12
REMARK VINA RESULT:    -5.186      2.418      4.845
REMARK INTER + INTRA:          -8.055
REMARK INTER:                  -7.094
REMARK INTRA:                  -0.961
REMARK UNBOUND:                -1.202
REMARK SMILES CC(=O)C[C@H](c1ccc([N+](=O)[O-])cc1)c1c(O)c(=O)oc2ccccc12
REMARK SMILES IDX 5 1 6 2 7 3 8 4 9 5 14 6 13 7 10 8 11 9 12 10 15 11 16 12
REMARK SMILES IDX 26 13 18 14 25 15 21 16 19 17 20 18 24 19 22 20 23 21 17 22
REMARK SMILES IDX 4 24 2 25 3 26 1 27
REMARK H PARENT 17 23
ROOT
ATOM      1  C   UNL     1     -12.933  28.476 -24.141  1.00  0.00     0.061 C 
ENDROOT
BRANCH   1   2
ATOM      2  C   UNL     1     -13.350  28.838 -22.709  1.00  0.00    -0.039 A 
ATOM      3  C   UNL     1     -13.340  27.851 -21.707  1.00  0.00     0.011 A 
ATOM      4  C   UNL     1     -13.726  28.152 -20.398  1.00  0.00     0.086 A 
ATOM      5  C   UNL     1     -14.138  29.451 -20.083  1.00  0.00     0.269 A 
ATOM      6  C   UNL     1     -13.783  30.133 -22.375  1.00  0.00     0.011 A 
ATOM      7  C   UNL     1     -14.170  30.444 -21.069  1.00  0.00     0.086 A 
BRANCH   5   8
ATOM      8  N   UNL     1     -14.545  29.774 -18.710  1.00  0.00     0.062 N 
ATOM      9  O   UNL     1     -14.546  30.967 -18.375  1.00  0.00    -0.258 OA
ATOM     10  O   UNL     1     -14.866  28.835 -17.967  1.00  0.00    -0.258 OA
ENDBRANCH   5   8
ENDBRANCH   1   2
BRANCH   1  11
ATOM     11  C   UNL     1     -13.870  29.114 -25.190  1.00  0.00     0.020 A 
ATOM     12  C   UNL     1     -13.483  30.038 -26.092  1.00  0.00     0.206 A 
ATOM     13  C   UNL     1     -15.303  28.710 -25.213  1.00  0.00     0.025 A 
ATOM     14  C   UNL     1     -14.415  30.655 -27.071  1.00  0.00     0.379 A 
ATOM     15  C   UNL     1     -15.865  27.745 -24.362  1.00  0.00     0.012 A 
ATOM     16  C   UNL     1     -16.169  29.308 -26.132  1.00  0.00     0.139 A 
ATOM     17  O   UNL     1     -13.969  31.483 -27.864  1.00  0.00    -0.242 OA
ATOM     18  O   UNL     1     -15.733  30.279 -27.046  1.00  0.00    -0.420 OA
ATOM     19  C   UNL     1     -17.224  27.407 -24.432  1.00  0.00     0.001 A 
ATOM     20  C   UNL     1     -17.528  28.985 -26.213  1.00  0.00     0.048 A 
ATOM     21  C   UNL     1     -18.056  28.028 -25.356  1.00  0.00     0.004 A 
BRANCH  12  22
ATOM     22  O   UNL     1     -12.164  30.463 -26.190  1.00  0.00    -0.502 OA
ATOM     23  H   UNL     1     -12.172  31.401 -25.893  1.00  0.00     0.293 HD
ENDBRANCH  12  22
ENDBRANCH   1  11
BRANCH   1  24
ATOM     24  C   UNL     1     -12.717  26.949 -24.251  1.00  0.00     0.088 C 
BRANCH  24  25
ATOM     25  C   UNL     1     -11.273  26.580 -24.545  1.00  0.00     0.130 C 
ATOM     26  O   UNL     1     -10.562  25.984 -23.734  1.00  0.00    -0.300 OA
ATOM     27  C   UNL     1     -10.719  27.041 -25.866  1.00  0.00     0.087 C 
ENDBRANCH  24  25
ENDBRANCH   1  24
TORSDOF 6
ENDMDL
MODEL 13
REMARK VINA RESULT:    -5.150      4.266      9.001
REMARK INTER + INTRA:          -8.009
REMARK INTER:                  -7.030
REMARK INTRA:                  -0.979
REMARK UNBOUND:                -1.202
REMARK SMILES CC(=O)C[C@H](c1ccc([N+](=O)[O-])cc1)c1c(O)c(=O)oc2ccccc12
REMARK SMILES IDX 5 1 6 2 7 3 8 4 9 5 14 6 13 7 10 8 11 9 12 10 15 11 16 12
REMARK SMILES IDX 26 13 18 14 25 15 21 16 19 17 20 18 24 19 22 20 23 21 17 22
REMARK SMILES IDX 4 24 2 25 3 26 1 27
REMARK H PARENT 17 23
ROOT
ATOM      1  C   UNL     1      -9.772  28.175 -27.027  1.00  0.00     0.061 C 
ENDROOT
BRANCH   1   2
ATOM      2  C   UNL     1     -10.999  27.852 -26.165  1.00  0.00    -0.039 A 
ATOM      3  C   UNL     1     -12.135  28.679 -26.227  1.00  0.00     0.011 A 
ATOM      4  C   UNL     1     -13.261  28.412 -25.443  1.00  0.00     0.086 A 
ATOM      5  C   UNL     1     -13.254  27.313 -24.579  1.00  0.00     0.269 A 
ATOM      6  C   UNL     1     -11.007  26.761 -25.278  1.00  0.00     0.011 A 
ATOM      7  C   UNL     1     -12.128  26.485 -24.492  1.00  0.00     0.086 A 
BRANCH   5   8
ATOM      8  N   UNL     1     -14.434  27.026 -23.754  1.00  0.00     0.062 N 
ATOM      9  O   UNL     1     -15.341  26.350 -24.259  1.00  0.00    -0.258 OA
ATOM     10  O   UNL     1     -14.453  27.475 -22.598  1.00  0.00    -0.258 OA
ENDBRANCH   5   8
ENDBRANCH   1   2
BRANCH   1  11
ATOM     11  C   UNL     1      -8.494  28.326 -26.173  1.00  0.00     0.020 A 
ATOM     12  C   UNL     1      -7.366  27.612 -26.360  1.00  0.00     0.206 A 
ATOM     13  C   UNL     1      -8.492  29.305 -25.052  1.00  0.00     0.025 A 
ATOM     14  C   UNL     1      -6.162  27.759 -25.503  1.00  0.00     0.379 A 
ATOM     15  C   UNL     1      -9.571  30.146 -24.734  1.00  0.00     0.012 A 
ATOM     16  C   UNL     1      -7.354  29.423 -24.247  1.00  0.00     0.139 A 
ATOM     17  O   UNL     1      -5.173  27.071 -25.756  1.00  0.00    -0.242 OA
ATOM     18  O   UNL     1      -6.204  28.651 -24.463  1.00  0.00    -0.420 OA
ATOM     19  C   UNL     1      -9.508  31.049 -23.663  1.00  0.00     0.001 A 
ATOM     20  C   UNL     1      -7.276  30.318 -23.174  1.00  0.00     0.048 A 
ATOM     21  C   UNL     1      -8.361  31.133 -22.882  1.00  0.00     0.004 A 
BRANCH  12  22
ATOM     22  O   UNL     1      -7.238  26.698 -27.399  1.00  0.00    -0.502 OA
ATOM     23  H   UNL     1      -7.747  25.906 -27.110  1.00  0.00     0.293 HD
ENDBRANCH  12  22
ENDBRANCH   1  11
BRANCH   1  24
ATOM     24  C   UNL     1     -10.100  29.346 -27.983  1.00  0.00     0.088 C 
BRANCH  24  25
ATOM     25  C   UNL     1      -9.025  29.563 -29.035  1.00  0.00     0.130 C 
ATOM     26  O   UNL     1      -8.476  28.632 -29.625  1.00  0.00    -0.300 OA
ATOM     27  C   UNL     1      -8.607  30.989 -29.281  1.00  0.00     0.087 C 
ENDBRANCH  24  25
ENDBRANCH   1  24
TORSDOF 6
ENDMDL
MODEL 14
REMARK VINA RESULT:    -5.132      1.845      4.461
REMARK INTER + INTRA:          -7.984
REMARK INTER:                  -7.060
REMARK INTRA:                  -0.925
REMARK UNBOUND:                -1.202
REMARK SMILES CC(=O)C[C@H](c1ccc([N+](=O)[O-])cc1)c1c(O)c(=O)oc2ccccc12
REMARK SMILES IDX 5 1 6 2 7 3 8 4 9 5 14 6 13 7 10 8 11 9 12 10 15 11 16 12
REMARK SMILES IDX 26 13 18 14 25 15 21 16 19 17 20 18 24 19 22 20 23 21 17 22
REMARK SMILES IDX 4 24 2 25 3 26 1 27
REMARK H PARENT 17 23
ROOT
ATOM      1  C   UNL     1     -15.411  28.336 -24.591  1.00  0.00     0.061 C 
ENDROOT
BRANCH   1   2
ATOM      2  C   UNL     1     -13.947  27.939 -24.828  1.00  0.00    -0.039 A 
ATOM      3  C   UNL     1     -13.024  28.904 -25.270  1.00  0.00     0.011 A 
ATOM      4  C   UNL     1     -11.689  28.565 -25.504  1.00  0.00     0.086 A 
ATOM      5  C   UNL     1     -11.267  27.246 -25.305  1.00  0.00     0.269 A 
ATOM      6  C   UNL     1     -13.507  26.616 -24.650  1.00  0.00     0.011 A 
ATOM      7  C   UNL     1     -12.174  26.268 -24.880  1.00  0.00     0.086 A 
BRANCH   5   8
ATOM      8  N   UNL     1      -9.866  26.884 -25.548  1.00  0.00     0.062 N 
ATOM      9  O   UNL     1      -9.473  26.855 -26.723  1.00  0.00    -0.258 OA
ATOM     10  O   UNL     1      -9.156  26.629 -24.564  1.00  0.00    -0.258 OA
ENDBRANCH   5   8
ENDBRANCH   1   2
BRANCH   1  11
ATOM     11  C   UNL     1     -15.535  29.483 -23.564  1.00  0.00     0.020 A 
ATOM     12  C   UNL     1     -16.181  30.643 -23.796  1.00  0.00     0.206 A 
ATOM     13  C   UNL     1     -14.891  29.327 -22.231  1.00  0.00     0.025 A 
ATOM     14  C   UNL     1     -16.259  31.741 -22.798  1.00  0.00     0.379 A 
ATOM     15  C   UNL     1     -14.201  28.176 -21.817  1.00  0.00     0.012 A 
ATOM     16  C   UNL     1     -14.963  30.374 -21.308  1.00  0.00     0.139 A 
ATOM     17  O   UNL     1     -16.881  32.762 -23.095  1.00  0.00    -0.242 OA
ATOM     18  O   UNL     1     -15.631  31.574 -21.591  1.00  0.00    -0.420 OA
ATOM     19  C   UNL     1     -13.614  28.089 -20.547  1.00  0.00     0.001 A 
ATOM     20  C   UNL     1     -14.382  30.304 -20.037  1.00  0.00     0.048 A 
ATOM     21  C   UNL     1     -13.703  29.154 -19.657  1.00  0.00     0.004 A 
BRANCH  12  22
ATOM     22  O   UNL     1     -16.853  30.886 -24.988  1.00  0.00    -0.502 OA
ATOM     23  H   UNL     1     -17.772  30.570 -24.836  1.00  0.00     0.293 HD
ENDBRANCH  12  22
ENDBRANCH   1  11
BRANCH   1  24
ATOM     24  C   UNL     1     -16.255  27.071 -24.312  1.00  0.00     0.088 C 
BRANCH  24  25
ATOM     25  C   UNL     1     -17.641  27.142 -24.931  1.00  0.00     0.130 C 
ATOM     26  O   UNL     1     -18.056  28.145 -25.515  1.00  0.00    -0.300 OA
ATOM     27  C   UNL     1     -18.524  25.938 -24.738  1.00  0.00     0.087 C 
ENDBRANCH  24  25
ENDBRANCH   1  24
TORSDOF 6
ENDMDL
MODEL 15
REMARK VINA RESULT:    -5.129      3.095      6.155
REMARK INTER + INTRA:          -7.980
REMARK INTER:                  -7.166
REMARK INTRA:                  -0.814
REMARK UNBOUND:                -1.202
REMARK SMILES CC(=O)C[C@H](c1ccc([N+](=O)[O-])cc1)c1c(O)c(=O)oc2ccccc12
REMARK SMILES IDX 5 1 6 2 7 3 8 4 9 5 14 6 13 7 10 8 11 9 12 10 15 11 16 12
REMARK SMILES IDX 26 13 18 14 25 15 21 16 19 17 20 18 24 19 22 20 23 21 17 22
REMARK SMILES IDX 4 24 2 25 3 26 1 27
REMARK H PARENT 17 23
ROOT
ATOM      1  C   UNL     1     -15.183  29.077 -23.877  1.00  0.00     0.061 C 
ENDROOT
BRANCH   1   2
ATOM      2  C   UNL     1     -16.552  28.515 -24.280  1.00  0.00    -0.039 A 
ATOM      3  C   UNL     1     -17.623  29.393 -24.528  1.00  0.00     0.011 A 
ATOM      4  C   UNL     1     -18.883  28.905 -24.886  1.00  0.00     0.086 A 
ATOM      5  C   UNL     1     -19.083  27.525 -24.989  1.00  0.00     0.269 A 
ATOM      6  C   UNL     1     -16.779  27.131 -24.374  1.00  0.00     0.011 A 
ATOM      7  C   UNL     1     -18.035  26.634 -24.732  1.00  0.00     0.086 A 
BRANCH   5   8
ATOM      8  N   UNL     1     -20.404  27.006 -25.365  1.00  0.00     0.062 N 
ATOM      9  O   UNL     1     -21.293  27.828 -25.631  1.00  0.00    -0.258 OA
ATOM     10  O   UNL     1     -20.554  25.776 -25.396  1.00  0.00    -0.258 OA
ENDBRANCH   5   8
ENDBRANCH   1   2
BRANCH   1  11
ATOM     11  C   UNL     1     -14.080  28.679 -24.882  1.00  0.00     0.020 A 
ATOM     12  C   UNL     1     -13.207  27.669 -24.692  1.00  0.00     0.206 A 
ATOM     13  C   UNL     1     -13.943  29.458 -26.143  1.00  0.00     0.025 A 
ATOM     14  C   UNL     1     -12.138  27.328 -25.665  1.00  0.00     0.379 A 
ATOM     15  C   UNL     1     -14.783  30.521 -26.511  1.00  0.00     0.012 A 
ATOM     16  C   UNL     1     -12.924  29.131 -27.043  1.00  0.00     0.139 A 
ATOM     17  O   UNL     1     -11.392  26.382 -25.411  1.00  0.00    -0.242 OA
ATOM     18  O   UNL     1     -12.023  28.084 -26.803  1.00  0.00    -0.420 OA
ATOM     19  C   UNL     1     -14.602  31.218 -27.714  1.00  0.00     0.001 A 
ATOM     20  C   UNL     1     -12.729  29.818 -28.247  1.00  0.00     0.048 A 
ATOM     21  C   UNL     1     -13.574  30.867 -28.582  1.00  0.00     0.004 A 
BRANCH  12  22
ATOM     22  O   UNL     1     -13.263  26.850 -23.571  1.00  0.00    -0.502 OA
ATOM     23  H   UNL     1     -14.223  26.736 -23.382  1.00  0.00     0.293 HD
ENDBRANCH  12  22
ENDBRANCH   1  11
BRANCH   1  24
ATOM     24  C   UNL     1     -14.905  28.756 -22.390  1.00  0.00     0.088 C 
BRANCH  24  25
ATOM     25  C   UNL     1     -15.862  29.467 -21.447  1.00  0.00     0.130 C 
ATOM     26  O   UNL     1     -16.596  28.860 -20.666  1.00  0.00    -0.300 OA
ATOM     27  C   UNL     1     -15.922  30.967 -21.560  1.00  0.00     0.087 C 
ENDBRANCH  24  25
ENDBRANCH   1  24
TORSDOF 6
ENDMDL
MODEL 16
REMARK VINA RESULT:    -5.126      6.790     11.058
REMARK INTER + INTRA:          -7.977
REMARK INTER:                  -6.900
REMARK INTRA:                  -1.076
REMARK UNBOUND:                -1.202
REMARK SMILES CC(=O)C[C@H](c1ccc([N+](=O)[O-])cc1)c1c(O)c(=O)oc2ccccc12
REMARK SMILES IDX 5 1 6 2 7 3 8 4 9 5 14 6 13 7 10 8 11 9 12 10 15 11 16 12
REMARK SMILES IDX 26 13 18 14 25 15 21 16 19 17 20 18 24 19 22 20 23 21 17 22
REMARK SMILES IDX 4 24 2 25 3 26 1 27
REMARK H PARENT 17 23
ROOT
ATOM      1  C   UNL     1      -6.748  29.352 -27.564  1.00  0.00     0.061 C 
ENDROOT
BRANCH   1   2
ATOM      2  C   UNL     1      -7.824  28.577 -26.793  1.00  0.00    -0.039 A 
ATOM      3  C   UNL     1      -7.885  28.672 -25.391  1.00  0.00     0.011 A 
ATOM      4  C   UNL     1      -8.849  27.967 -24.665  1.00  0.00     0.086 A 
ATOM      5  C   UNL     1      -9.759  27.149 -25.342  1.00  0.00     0.269 A 
ATOM      6  C   UNL     1      -8.738  27.736 -27.452  1.00  0.00     0.011 A 
ATOM      7  C   UNL     1      -9.706  27.028 -26.735  1.00  0.00     0.086 A 
BRANCH   5   8
ATOM      8  N   UNL     1     -10.774  26.406 -24.585  1.00  0.00     0.062 N 
ATOM      9  O   UNL     1     -10.451  25.949 -23.480  1.00  0.00    -0.258 OA
ATOM     10  O   UNL     1     -11.898  26.281 -25.095  1.00  0.00    -0.258 OA
ENDBRANCH   5   8
ENDBRANCH   1   2
BRANCH   1  11
ATOM     11  C   UNL     1      -5.466  28.513 -27.760  1.00  0.00     0.020 A 
ATOM     12  C   UNL     1      -4.499  28.375 -26.830  1.00  0.00     0.206 A 
ATOM     13  C   UNL     1      -5.255  27.818 -29.059  1.00  0.00     0.025 A 
ATOM     14  C   UNL     1      -3.262  27.585 -27.058  1.00  0.00     0.379 A 
ATOM     15  C   UNL     1      -6.170  27.835 -30.123  1.00  0.00     0.012 A 
ATOM     16  C   UNL     1      -4.080  27.087 -29.262  1.00  0.00     0.139 A 
ATOM     17  O   UNL     1      -2.439  27.507 -26.147  1.00  0.00    -0.242 OA
ATOM     18  O   UNL     1      -3.088  26.980 -28.276  1.00  0.00    -0.420 OA
ATOM     19  C   UNL     1      -5.913  27.159 -31.324  1.00  0.00     0.001 A 
ATOM     20  C   UNL     1      -3.807  26.408 -30.455  1.00  0.00     0.048 A 
ATOM     21  C   UNL     1      -4.731  26.447 -31.491  1.00  0.00     0.004 A 
BRANCH  12  22
ATOM     22  O   UNL     1      -4.605  28.947 -25.568  1.00  0.00    -0.502 OA
ATOM     23  H   UNL     1      -4.152  29.817 -25.640  1.00  0.00     0.293 HD
ENDBRANCH  12  22
ENDBRANCH   1  11
BRANCH   1  24
ATOM     24  C   UNL     1      -6.563  30.753 -26.935  1.00  0.00     0.088 C 
BRANCH  24  25
ATOM     25  C   UNL     1      -7.422  31.814 -27.602  1.00  0.00     0.130 C 
ATOM     26  O   UNL     1      -7.886  32.775 -26.986  1.00  0.00    -0.300 OA
ATOM     27  C   UNL     1      -7.743  31.599 -29.057  1.00  0.00     0.087 C 
ENDBRANCH  24  25
ENDBRANCH   1  24
TORSDOF 6
ENDMDL
MODEL 17
REMARK VINA RESULT:    -5.116      4.918      7.421
REMARK INTER + INTRA:          -7.963
REMARK INTER:                  -6.770
REMARK INTRA:                  -1.194
REMARK UNBOUND:                -1.202
REMARK SMILES CC(=O)C[C@H](c1ccc([N+](=O)[O-])cc1)c1c(O)c(=O)oc2ccccc12
REMARK SMILES IDX 5 1 6 2 7 3 8 4 9 5 14 6 13 7 10 8 11 9 12 10 15 11 16 12
REMARK SMILES IDX 26 13 18 14 25 15 21 16 19 17 20 18 24 19 22 20 23 21 17 22
REMARK SMILES IDX 4 24 2 25 3 26 1 27
REMARK H PARENT 17 23
ROOT
ATOM      1  C   UNL     1     -19.764  28.675 -29.004  1.00  0.00     0.061 C 
ENDROOT
BRANCH   1   2
ATOM      2  C   UNL     1     -19.666  28.418 -27.494  1.00  0.00    -0.039 A 
ATOM      3  C   UNL     1     -20.155  29.376 -26.589  1.00  0.00     0.011 A 
ATOM      4  C   UNL     1     -20.067  29.170 -25.209  1.00  0.00     0.086 A 
ATOM      5  C   UNL     1     -19.477  28.000 -24.724  1.00  0.00     0.269 A 
ATOM      6  C   UNL     1     -19.062  27.255 -26.986  1.00  0.00     0.011 A 
ATOM      7  C   UNL     1     -18.970  27.040 -25.608  1.00  0.00     0.086 A 
BRANCH   5   8
ATOM      8  N   UNL     1     -19.382  27.777 -23.275  1.00  0.00     0.062 N 
ATOM      9  O   UNL     1     -18.621  26.884 -22.878  1.00  0.00    -0.258 OA
ATOM     10  O   UNL     1     -20.068  28.497 -22.534  1.00  0.00    -0.258 OA
ENDBRANCH   5   8
ENDBRANCH   1   2
BRANCH   1  11
ATOM     11  C   UNL     1     -18.386  28.574 -29.694  1.00  0.00     0.020 A 
ATOM     12  C   UNL     1     -17.352  29.403 -29.450  1.00  0.00     0.206 A 
ATOM     13  C   UNL     1     -18.169  27.509 -30.712  1.00  0.00     0.025 A 
ATOM     14  C   UNL     1     -16.046  29.299 -30.151  1.00  0.00     0.379 A 
ATOM     15  C   UNL     1     -19.129  26.547 -31.067  1.00  0.00     0.012 A 
ATOM     16  C   UNL     1     -16.939  27.431 -31.371  1.00  0.00     0.139 A 
ATOM     17  O   UNL     1     -15.155  30.095 -29.856  1.00  0.00    -0.242 OA
ATOM     18  O   UNL     1     -15.890  28.324 -31.102  1.00  0.00    -0.420 OA
ATOM     19  C   UNL     1     -18.865  25.569 -32.035  1.00  0.00     0.001 A 
ATOM     20  C   UNL     1     -16.659  26.462 -32.340  1.00  0.00     0.048 A 
ATOM     21  C   UNL     1     -17.630  25.527 -32.673  1.00  0.00     0.004 A 
BRANCH  12  22
ATOM     22  O   UNL     1     -17.425  30.409 -28.495  1.00  0.00    -0.502 OA
ATOM     23  H   UNL     1     -16.496  30.706 -28.361  1.00  0.00     0.293 HD
ENDBRANCH  12  22
ENDBRANCH   1  11
BRANCH   1  24
ATOM     24  C   UNL     1     -20.567  29.972 -29.261  1.00  0.00     0.088 C 
BRANCH  24  25
ATOM     25  C   UNL     1     -21.964  29.701 -29.795  1.00  0.00     0.130 C 
ATOM     26  O   UNL     1     -22.980  30.117 -29.235  1.00  0.00    -0.300 OA
ATOM     27  C   UNL     1     -22.056  28.831 -31.020  1.00  0.00     0.087 C 
ENDBRANCH  24  25
ENDBRANCH   1  24
TORSDOF 6
ENDMDL
MODEL 18
REMARK VINA RESULT:    -5.084      2.681      5.841
REMARK INTER + INTRA:          -7.921
REMARK INTER:                  -6.964
REMARK INTRA:                  -0.957
REMARK UNBOUND:                -1.202
REMARK SMILES CC(=O)C[C@H](c1ccc([N+](=O)[O-])cc1)c1c(O)c(=O)oc2ccccc12
REMARK SMILES IDX 5 1 6 2 7 3 8 4 9 5 14 6 13 7 10 8 11 9 12 10 15 11 16 12
REMARK SMILES IDX 26 13 18 14 25 15 21 16 19 17 20 18 24 19 22 20 23 21 17 22
REMARK SMILES IDX 4 24 2 25 3 26 1 27
REMARK H PARENT 17 23
ROOT
ATOM      1  C   UNL     1     -15.260  29.595 -23.349  1.00  0.00     0.061 C 
ENDROOT
BRANCH   1   2
ATOM      2  C   UNL     1     -16.323  28.929 -24.232  1.00  0.00    -0.039 A 
ATOM      3  C   UNL     1     -16.639  29.484 -25.485  1.00  0.00     0.011 A 
ATOM      4  C   UNL     1     -17.612  28.903 -26.303  1.00  0.00     0.086 A 
ATOM      5  C   UNL     1     -18.286  27.759 -25.865  1.00  0.00     0.269 A 
ATOM      6  C   UNL     1     -17.024  27.788 -23.804  1.00  0.00     0.011 A 
ATOM      7  C   UNL     1     -17.997  27.199 -24.615  1.00  0.00     0.086 A 
BRANCH   5   8
ATOM      8  N   UNL     1     -19.309  27.143 -26.720  1.00  0.00     0.062 N 
ATOM      9  O   UNL     1     -19.336  27.470 -27.914  1.00  0.00    -0.258 OA
ATOM     10  O   UNL     1     -20.085  26.329 -26.197  1.00  0.00    -0.258 OA
ENDBRANCH   5   8
ENDBRANCH   1   2
BRANCH   1  11
ATOM     11  C   UNL     1     -13.960  29.881 -24.132  1.00  0.00     0.020 A 
ATOM     12  C   UNL     1     -13.530  31.114 -24.466  1.00  0.00     0.206 A 
ATOM     13  C   UNL     1     -13.120  28.733 -24.573  1.00  0.00     0.025 A 
ATOM     14  C   UNL     1     -12.290  31.356 -25.246  1.00  0.00     0.379 A 
ATOM     15  C   UNL     1     -13.407  27.388 -24.288  1.00  0.00     0.012 A 
ATOM     16  C   UNL     1     -11.962  28.977 -25.316  1.00  0.00     0.139 A 
ATOM     17  O   UNL     1     -11.970  32.518 -25.496  1.00  0.00    -0.242 OA
ATOM     18  O   UNL     1     -11.555  30.275 -25.659  1.00  0.00    -0.420 OA
ATOM     19  C   UNL     1     -12.576  26.350 -24.732  1.00  0.00     0.001 A 
ATOM     20  C   UNL     1     -11.123  27.953 -25.768  1.00  0.00     0.048 A 
ATOM     21  C   UNL     1     -11.434  26.633 -25.474  1.00  0.00     0.004 A 
BRANCH  12  22
ATOM     22  O   UNL     1     -14.211  32.261 -24.076  1.00  0.00    -0.502 OA
ATOM     23  H   UNL     1     -13.596  32.733 -23.470  1.00  0.00     0.293 HD
ENDBRANCH  12  22
ENDBRANCH   1  11
BRANCH   1  24
ATOM     24  C   UNL     1     -15.106  28.801 -22.030  1.00  0.00     0.088 C 
BRANCH  24  25
ATOM     25  C   UNL     1     -15.777  29.487 -20.851  1.00  0.00     0.130 C 
ATOM     26  O   UNL     1     -16.707  28.973 -20.226  1.00  0.00    -0.300 OA
ATOM     27  C   UNL     1     -15.292  30.872 -20.517  1.00  0.00     0.087 C 
ENDBRANCH  24  25
ENDBRANCH   1  24
TORSDOF 6
ENDMDL
MODEL 19
REMARK VINA RESULT:    -5.032      5.355      9.363
REMARK INTER + INTRA:          -7.852
REMARK INTER:                  -6.736
REMARK INTRA:                  -1.116
REMARK UNBOUND:                -1.202
REMARK SMILES CC(=O)C[C@H](c1ccc([N+](=O)[O-])cc1)c1c(O)c(=O)oc2ccccc12
REMARK SMILES IDX 5 1 6 2 7 3 8 4 9 5 14 6 13 7 10 8 11 9 12 10 15 11 16 12
REMARK SMILES IDX 26 13 18 14 25 15 21 16 19 17 20 18 24 19 22 20 23 21 17 22
REMARK SMILES IDX 4 24 2 25 3 26 1 27
REMARK H PARENT 17 23
ROOT
ATOM      1  C   UNL     1      -9.691  28.027 -25.822  1.00  0.00     0.061 C 
ENDROOT
BRANCH   1   2
ATOM      2  C   UNL     1     -10.149  28.708 -27.119  1.00  0.00    -0.039 A 
ATOM      3  C   UNL     1     -10.872  27.974 -28.076  1.00  0.00     0.011 A 
ATOM      4  C   UNL     1     -11.291  28.568 -29.271  1.00  0.00     0.086 A 
ATOM      5  C   UNL     1     -10.978  29.908 -29.520  1.00  0.00     0.269 A 
ATOM      6  C   UNL     1      -9.831  30.048 -27.397  1.00  0.00     0.011 A 
ATOM      7  C   UNL     1     -10.246  30.651 -28.587  1.00  0.00     0.086 A 
BRANCH   5   8
ATOM      8  N   UNL     1     -11.415  30.538 -30.772  1.00  0.00     0.062 N 
ATOM      9  O   UNL     1     -11.855  29.801 -31.665  1.00  0.00    -0.258 OA
ATOM     10  O   UNL     1     -11.320  31.771 -30.861  1.00  0.00    -0.258 OA
ENDBRANCH   5   8
ENDBRANCH   1   2
BRANCH   1  11
ATOM     11  C   UNL     1      -8.171  28.182 -25.599  1.00  0.00     0.020 A 
ATOM     12  C   UNL     1      -7.228  27.580 -26.351  1.00  0.00     0.206 A 
ATOM     13  C   UNL     1      -7.694  29.032 -24.474  1.00  0.00     0.025 A 
ATOM     14  C   UNL     1      -5.772  27.725 -26.094  1.00  0.00     0.379 A 
ATOM     15  C   UNL     1      -8.538  29.749 -23.611  1.00  0.00     0.012 A 
ATOM     16  C   UNL     1      -6.321  29.148 -24.238  1.00  0.00     0.139 A 
ATOM     17  O   UNL     1      -4.983  27.146 -26.840  1.00  0.00    -0.242 OA
ATOM     18  O   UNL     1      -5.368  28.494 -25.032  1.00  0.00    -0.420 OA
ATOM     19  C   UNL     1      -8.028  30.533 -22.567  1.00  0.00     0.001 A 
ATOM     20  C   UNL     1      -5.795  29.925 -23.200  1.00  0.00     0.048 A 
ATOM     21  C   UNL     1      -6.656  30.620 -22.361  1.00  0.00     0.004 A 
BRANCH  12  22
ATOM     22  O   UNL     1      -7.553  26.795 -27.450  1.00  0.00    -0.502 OA
ATOM     23  H   UNL     1      -6.928  27.071 -28.159  1.00  0.00     0.293 HD
ENDBRANCH  12  22
ENDBRANCH   1  11
BRANCH   1  24
ATOM     24  C   UNL     1     -10.251  26.586 -25.765  1.00  0.00     0.088 C 
BRANCH  24  25
ATOM     25  C   UNL     1     -11.100  26.335 -24.529  1.00  0.00     0.130 C 
ATOM     26  O   UNL     1     -10.618  25.962 -23.458  1.00  0.00    -0.300 OA
ATOM     27  C   UNL     1     -12.587  26.501 -24.693  1.00  0.00     0.087 C 
ENDBRANCH  24  25
ENDBRANCH   1  24
TORSDOF 6
ENDMDL
MODEL 20
REMARK VINA RESULT:    -5.010      2.013      5.011
REMARK INTER + INTRA:          -7.823
REMARK INTER:                  -7.012
REMARK INTRA:                  -0.812
REMARK UNBOUND:                -1.202
REMARK SMILES CC(=O)C[C@H](c1ccc([N+](=O)[O-])cc1)c1c(O)c(=O)oc2ccccc12
REMARK SMILES IDX 5 1 6 2 7 3 8 4 9 5 14 6 13 7 10 8 11 9 12 10 15 11 16 12
REMARK SMILES IDX 26 13 18 14 25 15 21 16 19 17 20 18 24 19 22 20 23 21 17 22
REMARK SMILES IDX 4 24 2 25 3 26 1 27
REMARK H PARENT 17 23
ROOT
ATOM      1  C   UNL     1     -16.241  29.204 -24.744  1.00  0.00     0.061 C 
ENDROOT
BRANCH   1   2
ATOM      2  C   UNL     1     -14.871  28.520 -24.837  1.00  0.00    -0.039 A 
ATOM      3  C   UNL     1     -14.709  27.210 -24.351  1.00  0.00     0.011 A 
ATOM      4  C   UNL     1     -13.468  26.570 -24.414  1.00  0.00     0.086 A 
ATOM      5  C   UNL     1     -12.371  27.244 -24.960  1.00  0.00     0.269 A 
ATOM      6  C   UNL     1     -13.753  29.186 -25.367  1.00  0.00     0.011 A 
ATOM      7  C   UNL     1     -12.508  28.554 -25.436  1.00  0.00     0.086 A 
BRANCH   5   8
ATOM      8  N   UNL     1     -11.066  26.577 -25.030  1.00  0.00     0.062 N 
ATOM      9  O   UNL     1     -10.681  25.955 -24.030  1.00  0.00    -0.258 OA
ATOM     10  O   UNL     1     -10.424  26.673 -26.087  1.00  0.00    -0.258 OA
ENDBRANCH   5   8
ENDBRANCH   1   2
BRANCH   1  11
ATOM     11  C   UNL     1     -16.650  29.473 -23.279  1.00  0.00     0.020 A 
ATOM     12  C   UNL     1     -17.428  28.652 -22.545  1.00  0.00     0.206 A 
ATOM     13  C   UNL     1     -16.180  30.722 -22.621  1.00  0.00     0.025 A 
ATOM     14  C   UNL     1     -17.829  28.952 -21.146  1.00  0.00     0.379 A 
ATOM     15  C   UNL     1     -15.344  31.671 -23.231  1.00  0.00     0.012 A 
ATOM     16  C   UNL     1     -16.576  30.995 -21.308  1.00  0.00     0.139 A 
ATOM     17  O   UNL     1     -18.534  28.139 -20.550  1.00  0.00    -0.242 OA
ATOM     18  O   UNL     1     -17.401  30.125 -20.580  1.00  0.00    -0.420 OA
ATOM     19  C   UNL     1     -14.936  32.831 -22.557  1.00  0.00     0.001 A 
ATOM     20  C   UNL     1     -16.178  32.148 -20.622  1.00  0.00     0.048 A 
ATOM     21  C   UNL     1     -15.354  33.070 -21.253  1.00  0.00     0.004 A 
BRANCH  12  22
ATOM     22  O   UNL     1     -17.893  27.441 -23.041  1.00  0.00    -0.502 OA
ATOM     23  H   UNL     1     -18.621  27.677 -23.660  1.00  0.00     0.293 HD
ENDBRANCH  12  22
ENDBRANCH   1  11
BRANCH   1  24
ATOM     24  C   UNL     1     -17.266  28.438 -25.614  1.00  0.00     0.088 C 
BRANCH  24  25
ATOM     25  C   UNL     1     -18.366  29.338 -26.154  1.00  0.00     0.130 C 
ATOM     26  O   UNL     1     -19.453  29.469 -25.590  1.00  0.00    -0.300 OA
ATOM     27  C   UNL     1     -18.087  30.022 -27.466  1.00  0.00     0.087 C 
ENDBRANCH  24  25
ENDBRANCH   1  24
TORSDOF 6
ENDMDL
