MODEL 1
REMARK VINA RESULT:    -6.171      0.000      0.000
REMARK INTER + INTRA:          -8.369
REMARK INTER:                  -7.795
REMARK INTRA:                  -0.574
REMARK UNBOUND:                -0.574
REMARK SMILES O=C(C[C@@]1(O)C(=O)Oc2ccccc21)c1ccc([N+](=O)[O-])cc1
REMARK SMILES IDX 2 1 1 2 3 3 4 4 14 5 6 6 13 7 9 8 8 9 7 10 12 11 10 12 11 13
REMARK SMILES IDX 5 14 15 16 16 17 23 18 17 19 22 20 18 21 19 22 20 23 21 24
REMARK H PARENT 5 15
ROOT
ATOM      1  C   UNL     1     -20.473   3.557 -19.213  1.00  0.00     0.166 C 
ATOM      2  O   UNL     1     -21.017   2.736 -18.477  1.00  0.00    -0.294 OA
ENDROOT
BRANCH   1   3
ATOM      3  C   UNL     1     -19.248   3.197 -20.032  1.00  0.00     0.133 C 
BRANCH   3   4
ATOM      4  C   UNL     1     -19.537   2.008 -20.961  1.00  0.00     0.198 C 
ATOM      5  C   UNL     1     -18.329   1.160 -21.127  1.00  0.00     0.038 A 
ATOM      6  C   UNL     1     -19.710   2.516 -22.420  1.00  0.00     0.348 C 
ATOM      7  C   UNL     1     -17.647   0.368 -20.216  1.00  0.00     0.011 A 
ATOM      8  C   UNL     1     -17.906   1.250 -22.441  1.00  0.00     0.137 A 
ATOM      9  O   UNL     1     -18.684   2.061 -23.245  1.00  0.00    -0.424 OA
ATOM     10  O   UNL     1     -20.599   3.260 -22.814  1.00  0.00    -0.248 OA
ATOM     11  C   UNL     1     -16.516  -0.325 -20.656  1.00  0.00     0.001 A 
ATOM     12  C   UNL     1     -16.791   0.575 -22.898  1.00  0.00     0.047 A 
ATOM     13  C   UNL     1     -16.088  -0.219 -21.989  1.00  0.00     0.004 A 
BRANCH   4  14
ATOM     14  O   UNL     1     -20.578   1.186 -20.467  1.00  0.00    -0.373 OA
ATOM     15  H   UNL     1     -20.266   0.260 -20.569  1.00  0.00     0.212 HD
ENDBRANCH   4  14
ENDBRANCH   3   4
ENDBRANCH   1   3
BRANCH   1  16
ATOM     16  C   UNL     1     -21.012   4.944 -19.279  1.00  0.00     0.018 A 
ATOM     17  C   UNL     1     -21.359   5.550 -20.494  1.00  0.00     0.019 A 
ATOM     18  C   UNL     1     -21.151   5.660 -18.081  1.00  0.00     0.019 A 
ATOM     19  C   UNL     1     -21.857   6.859 -20.509  1.00  0.00     0.086 A 
ATOM     20  C   UNL     1     -21.648   6.967 -18.088  1.00  0.00     0.086 A 
ATOM     21  C   UNL     1     -22.001   7.563 -19.304  1.00  0.00     0.269 A 
BRANCH  21  22
ATOM     22  N   UNL     1     -22.522   8.936 -19.321  1.00  0.00     0.062 N 
ATOM     23  O   UNL     1     -22.415   9.580 -20.374  1.00  0.00    -0.258 OA
ATOM     24  O   UNL     1     -23.039   9.367 -18.280  1.00  0.00    -0.258 OA
ENDBRANCH  21  22
ENDBRANCH   1  16
TORSDOF 5
ENDMDL
MODEL 2
REMARK VINA RESULT:    -5.840      3.584      7.884
REMARK INTER + INTRA:          -7.951
REMARK INTER:                  -7.154
REMARK INTRA:                  -0.797
REMARK UNBOUND:                -0.574
REMARK SMILES O=C(C[C@@]1(O)C(=O)Oc2ccccc21)c1ccc([N+](=O)[O-])cc1
REMARK SMILES IDX 2 1 1 2 3 3 4 4 14 5 6 6 13 7 9 8 8 9 7 10 12 11 10 12 11 13
REMARK SMILES IDX 5 14 15 16 16 17 23 18 17 19 22 20 18 21 19 22 20 23 21 24
REMARK H PARENT 5 15
ROOT
ATOM      1  C   UNL     1     -19.458   1.707 -21.272  1.00  0.00     0.166 C 
ATOM      2  O   UNL     1     -20.522   1.106 -21.415  1.00  0.00    -0.294 OA
ENDROOT
BRANCH   1   3
ATOM      3  C   UNL     1     -19.421   3.204 -21.033  1.00  0.00     0.133 C 
BRANCH   3   4
ATOM      4  C   UNL     1     -20.222   3.582 -19.779  1.00  0.00     0.198 C 
ATOM      5  C   UNL     1     -21.464   4.313 -20.143  1.00  0.00     0.038 A 
ATOM      6  C   UNL     1     -19.474   4.699 -18.998  1.00  0.00     0.348 C 
ATOM      7  C   UNL     1     -22.596   3.889 -20.820  1.00  0.00     0.011 A 
ATOM      8  C   UNL     1     -21.361   5.611 -19.678  1.00  0.00     0.137 A 
ATOM      9  O   UNL     1     -20.187   5.895 -19.007  1.00  0.00    -0.424 OA
ATOM     10  O   UNL     1     -18.375   4.583 -18.469  1.00  0.00    -0.248 OA
ATOM     11  C   UNL     1     -23.624   4.812 -21.033  1.00  0.00     0.001 A 
ATOM     12  C   UNL     1     -22.363   6.540 -19.877  1.00  0.00     0.047 A 
ATOM     13  C   UNL     1     -23.507   6.131 -20.567  1.00  0.00     0.004 A 
BRANCH   4  14
ATOM     14  O   UNL     1     -20.596   2.445 -19.022  1.00  0.00    -0.373 OA
ATOM     15  H   UNL     1     -20.407   2.667 -18.084  1.00  0.00     0.212 HD
ENDBRANCH   4  14
ENDBRANCH   3   4
ENDBRANCH   1   3
BRANCH   1  16
ATOM     16  C   UNL     1     -18.177   0.951 -21.364  1.00  0.00     0.018 A 
ATOM     17  C   UNL     1     -17.392   0.958 -22.524  1.00  0.00     0.019 A 
ATOM     18  C   UNL     1     -17.769   0.200 -20.252  1.00  0.00     0.019 A 
ATOM     19  C   UNL     1     -16.198   0.228 -22.568  1.00  0.00     0.086 A 
ATOM     20  C   UNL     1     -16.577  -0.531 -20.288  1.00  0.00     0.086 A 
ATOM     21  C   UNL     1     -15.793  -0.513 -21.447  1.00  0.00     0.269 A 
BRANCH  21  22
ATOM     22  N   UNL     1     -14.541  -1.278 -21.494  1.00  0.00     0.062 N 
ATOM     23  O   UNL     1     -13.860  -1.335 -20.460  1.00  0.00    -0.258 OA
ATOM     24  O   UNL     1     -14.240  -1.822 -22.567  1.00  0.00    -0.258 OA
ENDBRANCH  21  22
ENDBRANCH   1  16
TORSDOF 5
ENDMDL
MODEL 3
REMARK VINA RESULT:    -5.827      3.568      7.931
REMARK INTER + INTRA:          -7.934
REMARK INTER:                  -7.133
REMARK INTRA:                  -0.801
REMARK UNBOUND:                -0.574
REMARK SMILES O=C(C[C@@]1(O)C(=O)Oc2ccccc21)c1ccc([N+](=O)[O-])cc1
REMARK SMILES IDX 2 1 1 2 3 3 4 4 14 5 6 6 13 7 9 8 8 9 7 10 12 11 10 12 11 13
REMARK SMILES IDX 5 14 15 16 16 17 23 18 17 19 22 20 18 21 19 22 20 23 21 24
REMARK H PARENT 5 15
ROOT
ATOM      1  C   UNL     1     -19.464   1.764 -21.343  1.00  0.00     0.166 C 
ATOM      2  O   UNL     1     -20.529   1.196 -21.579  1.00  0.00    -0.294 OA
ENDROOT
BRANCH   1   3
ATOM      3  C   UNL     1     -19.407   3.252 -21.052  1.00  0.00     0.133 C 
BRANCH   3   4
ATOM      4  C   UNL     1     -20.242   3.602 -19.812  1.00  0.00     0.198 C 
ATOM      5  C   UNL     1     -21.481   4.327 -20.194  1.00  0.00     0.038 A 
ATOM      6  C   UNL     1     -19.523   4.713 -18.995  1.00  0.00     0.348 C 
ATOM      7  C   UNL     1     -22.593   3.905 -20.905  1.00  0.00     0.011 A 
ATOM      8  C   UNL     1     -21.401   5.619 -19.707  1.00  0.00     0.137 A 
ATOM      9  O   UNL     1     -20.247   5.904 -19.003  1.00  0.00    -0.424 OA
ATOM     10  O   UNL     1     -18.436   4.599 -18.443  1.00  0.00    -0.248 OA
ATOM     11  C   UNL     1     -23.624   4.821 -21.127  1.00  0.00     0.001 A 
ATOM     12  C   UNL     1     -22.407   6.542 -19.915  1.00  0.00     0.047 A 
ATOM     13  C   UNL     1     -23.531   6.134 -20.638  1.00  0.00     0.004 A 
BRANCH   4  14
ATOM     14  O   UNL     1     -20.623   2.450 -19.082  1.00  0.00    -0.373 OA
ATOM     15  H   UNL     1     -20.622   1.707 -19.725  1.00  0.00     0.212 HD
ENDBRANCH   4  14
ENDBRANCH   3   4
ENDBRANCH   1   3
BRANCH   1  16
ATOM     16  C   UNL     1     -18.199   0.978 -21.371  1.00  0.00     0.018 A 
ATOM     17  C   UNL     1     -17.767   0.223 -20.273  1.00  0.00     0.019 A 
ATOM     18  C   UNL     1     -17.416   1.023 -22.535  1.00  0.00     0.019 A 
ATOM     19  C   UNL     1     -16.567  -0.495 -20.343  1.00  0.00     0.086 A 
ATOM     20  C   UNL     1     -16.217   0.308 -22.613  1.00  0.00     0.086 A 
ATOM     21  C   UNL     1     -15.796  -0.452 -21.515  1.00  0.00     0.269 A 
BRANCH  21  22
ATOM     22  N   UNL     1     -14.538  -1.205 -21.587  1.00  0.00     0.062 N 
ATOM     23  O   UNL     1     -13.841  -1.263 -20.564  1.00  0.00    -0.258 OA
ATOM     24  O   UNL     1     -14.248  -1.738 -22.668  1.00  0.00    -0.258 OA
ENDBRANCH  21  22
ENDBRANCH   1  16
TORSDOF 5
ENDMDL
MODEL 4
REMARK VINA RESULT:    -5.602      3.367      5.930
REMARK INTER + INTRA:          -7.649
REMARK INTER:                  -6.678
REMARK INTRA:                  -0.971
REMARK UNBOUND:                -0.574
REMARK SMILES O=C(C[C@@]1(O)C(=O)Oc2ccccc21)c1ccc([N+](=O)[O-])cc1
REMARK SMILES IDX 2 1 1 2 3 3 4 4 14 5 6 6 13 7 9 8 8 9 7 10 12 11 10 12 11 13
REMARK SMILES IDX 5 14 15 16 16 17 23 18 17 19 22 20 18 21 19 22 20 23 21 24
REMARK H PARENT 5 15
ROOT
ATOM      1  C   UNL     1     -16.937  -0.093 -22.811  1.00  0.00     0.166 C 
ATOM      2  O   UNL     1     -17.371  -0.742 -23.762  1.00  0.00    -0.294 OA
ENDROOT
BRANCH   1   3
ATOM      3  C   UNL     1     -15.527  -0.298 -22.290  1.00  0.00     0.133 C 
BRANCH   3   4
ATOM      4  C   UNL     1     -15.417  -1.611 -21.502  1.00  0.00     0.198 C 
ATOM      5  C   UNL     1     -14.891  -1.366 -20.134  1.00  0.00     0.038 A 
ATOM      6  C   UNL     1     -14.260  -2.473 -22.082  1.00  0.00     0.348 C 
ATOM      7  C   UNL     1     -15.447  -0.691 -19.059  1.00  0.00     0.011 A 
ATOM      8  C   UNL     1     -13.644  -1.954 -20.031  1.00  0.00     0.137 A 
ATOM      9  O   UNL     1     -13.216  -2.608 -21.171  1.00  0.00    -0.424 OA
ATOM     10  O   UNL     1     -14.224  -2.947 -23.211  1.00  0.00    -0.248 OA
ATOM     11  C   UNL     1     -14.709  -0.608 -17.875  1.00  0.00     0.001 A 
ATOM     12  C   UNL     1     -12.896  -1.885 -18.872  1.00  0.00     0.047 A 
ATOM     13  C   UNL     1     -13.439  -1.199 -17.783  1.00  0.00     0.004 A 
BRANCH   4  14
ATOM     14  O   UNL     1     -16.667  -2.263 -21.374  1.00  0.00    -0.373 OA
ATOM     15  H   UNL     1     -17.261  -1.628 -20.914  1.00  0.00     0.212 HD
ENDBRANCH   4  14
ENDBRANCH   3   4
ENDBRANCH   1   3
BRANCH   1  16
ATOM     16  C   UNL     1     -17.826   0.895 -22.139  1.00  0.00     0.018 A 
ATOM     17  C   UNL     1     -18.424   1.953 -22.836  1.00  0.00     0.019 A 
ATOM     18  C   UNL     1     -18.046   0.760 -20.760  1.00  0.00     0.019 A 
ATOM     19  C   UNL     1     -19.248   2.862 -22.162  1.00  0.00     0.086 A 
ATOM     20  C   UNL     1     -18.868   1.663 -20.080  1.00  0.00     0.086 A 
ATOM     21  C   UNL     1     -19.469   2.713 -20.784  1.00  0.00     0.269 A 
BRANCH  21  22
ATOM     22  N   UNL     1     -20.333   3.667 -20.078  1.00  0.00     0.062 N 
ATOM     23  O   UNL     1     -21.093   4.370 -20.758  1.00  0.00    -0.258 OA
ATOM     24  O   UNL     1     -20.250   3.712 -18.842  1.00  0.00    -0.258 OA
ENDBRANCH  21  22
ENDBRANCH   1  16
TORSDOF 5
ENDMDL
MODEL 5
REMARK VINA RESULT:    -5.559      3.738      7.684
REMARK INTER + INTRA:          -7.595
REMARK INTER:                  -6.600
REMARK INTRA:                  -0.995
REMARK UNBOUND:                -0.574
REMARK SMILES O=C(C[C@@]1(O)C(=O)Oc2ccccc21)c1ccc([N+](=O)[O-])cc1
REMARK SMILES IDX 2 1 1 2 3 3 4 4 14 5 6 6 13 7 9 8 8 9 7 10 12 11 10 12 11 13
REMARK SMILES IDX 5 14 15 16 16 17 23 18 17 19 22 20 18 21 19 22 20 23 21 24
REMARK H PARENT 5 15
ROOT
ATOM      1  C   UNL     1     -18.642   0.402 -22.378  1.00  0.00     0.166 C 
ATOM      2  O   UNL     1     -18.787   0.184 -23.580  1.00  0.00    -0.294 OA
ENDROOT
BRANCH   1   3
ATOM      3  C   UNL     1     -19.724   1.078 -21.559  1.00  0.00     0.133 C 
BRANCH   3   4
ATOM      4  C   UNL     1     -19.934   2.529 -22.015  1.00  0.00     0.198 C 
ATOM      5  C   UNL     1     -20.075   3.437 -20.847  1.00  0.00     0.038 A 
ATOM      6  C   UNL     1     -21.349   2.680 -22.642  1.00  0.00     0.348 C 
ATOM      7  C   UNL     1     -19.161   3.805 -19.872  1.00  0.00     0.011 A 
ATOM      8  C   UNL     1     -21.364   3.937 -20.832  1.00  0.00     0.137 A 
ATOM      9  O   UNL     1     -22.167   3.501 -21.869  1.00  0.00    -0.424 OA
ATOM     10  O   UNL     1     -21.738   2.123 -23.661  1.00  0.00    -0.248 OA
ATOM     11  C   UNL     1     -19.579   4.683 -18.869  1.00  0.00     0.001 A 
ATOM     12  C   UNL     1     -21.800   4.805 -19.851  1.00  0.00     0.047 A 
ATOM     13  C   UNL     1     -20.893   5.179 -18.857  1.00  0.00     0.004 A 
BRANCH   4  14
ATOM     14  O   UNL     1     -18.857   3.002 -22.802  1.00  0.00    -0.373 OA
ATOM     15  H   UNL     1     -18.314   2.213 -23.023  1.00  0.00     0.212 HD
ENDBRANCH   4  14
ENDBRANCH   3   4
ENDBRANCH   1   3
BRANCH   1  16
ATOM     16  C   UNL     1     -17.362   0.018 -21.719  1.00  0.00     0.018 A 
ATOM     17  C   UNL     1     -16.185  -0.197 -22.448  1.00  0.00     0.019 A 
ATOM     18  C   UNL     1     -17.357  -0.148 -20.326  1.00  0.00     0.019 A 
ATOM     19  C   UNL     1     -15.006  -0.562 -21.787  1.00  0.00     0.086 A 
ATOM     20  C   UNL     1     -16.183  -0.512 -19.659  1.00  0.00     0.086 A 
ATOM     21  C   UNL     1     -15.009  -0.717 -20.392  1.00  0.00     0.269 A 
BRANCH  21  22
ATOM     22  N   UNL     1     -13.772  -1.100 -19.700  1.00  0.00     0.062 N 
ATOM     23  O   UNL     1     -13.148  -2.079 -20.132  1.00  0.00    -0.258 OA
ATOM     24  O   UNL     1     -13.425  -0.419 -18.723  1.00  0.00    -0.258 OA
ENDBRANCH  21  22
ENDBRANCH   1  16
TORSDOF 5
ENDMDL
MODEL 6
REMARK VINA RESULT:    -5.557      6.076      8.704
REMARK INTER + INTRA:          -7.593
REMARK INTER:                  -6.523
REMARK INTRA:                  -1.070
REMARK UNBOUND:                -0.574
REMARK SMILES O=C(C[C@@]1(O)C(=O)Oc2ccccc21)c1ccc([N+](=O)[O-])cc1
REMARK SMILES IDX 2 1 1 2 3 3 4 4 14 5 6 6 13 7 9 8 8 9 7 10 12 11 10 12 11 13
REMARK SMILES IDX 5 14 15 16 16 17 23 18 17 19 22 20 18 21 19 22 20 23 21 24
REMARK H PARENT 5 15
ROOT
ATOM      1  C   UNL     1     -17.479  -0.256 -19.003  1.00  0.00     0.166 C 
ATOM      2  O   UNL     1     -18.299   0.641 -18.817  1.00  0.00    -0.294 OA
ENDROOT
BRANCH   1   3
ATOM      3  C   UNL     1     -17.198  -1.305 -17.943  1.00  0.00     0.133 C 
BRANCH   3   4
ATOM      4  C   UNL     1     -16.555  -0.672 -16.701  1.00  0.00     0.198 C 
ATOM      5  C   UNL     1     -15.344  -1.427 -16.288  1.00  0.00     0.038 A 
ATOM      6  C   UNL     1     -17.460  -0.921 -15.461  1.00  0.00     0.348 C 
ATOM      7  C   UNL     1     -14.121  -1.590 -16.919  1.00  0.00     0.011 A 
ATOM      8  C   UNL     1     -15.591  -2.018 -15.062  1.00  0.00     0.137 A 
ATOM      9  O   UNL     1     -16.844  -1.763 -14.538  1.00  0.00    -0.424 OA
ATOM     10  O   UNL     1     -18.594  -0.483 -15.308  1.00  0.00    -0.248 OA
ATOM     11  C   UNL     1     -13.151  -2.377 -16.292  1.00  0.00     0.001 A 
ATOM     12  C   UNL     1     -14.649  -2.800 -14.424  1.00  0.00     0.047 A 
ATOM     13  C   UNL     1     -13.414  -2.981 -15.053  1.00  0.00     0.004 A 
BRANCH   4  14
ATOM     14  O   UNL     1     -16.172   0.672 -16.924  1.00  0.00    -0.373 OA
ATOM     15  H   UNL     1     -15.269   0.765 -16.546  1.00  0.00     0.212 HD
ENDBRANCH   4  14
ENDBRANCH   3   4
ENDBRANCH   1   3
BRANCH   1  16
ATOM     16  C   UNL     1     -16.724  -0.298 -20.287  1.00  0.00     0.018 A 
ATOM     17  C   UNL     1     -15.475  -0.924 -20.396  1.00  0.00     0.019 A 
ATOM     18  C   UNL     1     -17.286   0.331 -21.408  1.00  0.00     0.019 A 
ATOM     19  C   UNL     1     -14.799  -0.933 -21.622  1.00  0.00     0.086 A 
ATOM     20  C   UNL     1     -16.617   0.325 -22.636  1.00  0.00     0.086 A 
ATOM     21  C   UNL     1     -15.374  -0.309 -22.739  1.00  0.00     0.269 A 
BRANCH  21  22
ATOM     22  N   UNL     1     -14.663  -0.319 -24.024  1.00  0.00     0.062 N 
ATOM     23  O   UNL     1     -15.218  -0.868 -24.986  1.00  0.00    -0.258 OA
ATOM     24  O   UNL     1     -13.548   0.222 -24.069  1.00  0.00    -0.258 OA
ENDBRANCH  21  22
ENDBRANCH   1  16
TORSDOF 5
ENDMDL
MODEL 7
REMARK VINA RESULT:    -5.519      3.891      8.033
REMARK INTER + INTRA:          -7.545
REMARK INTER:                  -6.636
REMARK INTRA:                  -0.908
REMARK UNBOUND:                -0.574
REMARK SMILES O=C(C[C@@]1(O)C(=O)Oc2ccccc21)c1ccc([N+](=O)[O-])cc1
REMARK SMILES IDX 2 1 1 2 3 3 4 4 14 5 6 6 13 7 9 8 8 9 7 10 12 11 10 12 11 13
REMARK SMILES IDX 5 14 15 16 16 17 23 18 17 19 22 20 18 21 19 22 20 23 21 24
REMARK H PARENT 5 15
ROOT
ATOM      1  C   UNL     1     -18.394   1.076 -22.818  1.00  0.00     0.166 C 
ATOM      2  O   UNL     1     -18.957   0.499 -23.746  1.00  0.00    -0.294 OA
ENDROOT
BRANCH   1   3
ATOM      3  C   UNL     1     -18.823   2.461 -22.370  1.00  0.00     0.133 C 
BRANCH   3   4
ATOM      4  C   UNL     1     -20.105   2.395 -21.528  1.00  0.00     0.198 C 
ATOM      5  C   UNL     1     -21.185   3.210 -22.142  1.00  0.00     0.038 A 
ATOM      6  C   UNL     1     -19.900   3.180 -20.201  1.00  0.00     0.348 C 
ATOM      7  C   UNL     1     -21.878   3.044 -23.331  1.00  0.00     0.011 A 
ATOM      8  C   UNL     1     -21.462   4.274 -21.304  1.00  0.00     0.137 A 
ATOM      9  O   UNL     1     -20.710   4.312 -20.146  1.00  0.00    -0.424 OA
ATOM     10  O   UNL     1     -19.101   2.890 -19.319  1.00  0.00    -0.248 OA
ATOM     11  C   UNL     1     -22.853   3.987 -23.666  1.00  0.00     0.001 A 
ATOM     12  C   UNL     1     -22.421   5.219 -21.615  1.00  0.00     0.047 A 
ATOM     13  C   UNL     1     -23.121   5.071 -22.815  1.00  0.00     0.004 A 
BRANCH   4  14
ATOM     14  O   UNL     1     -20.586   1.070 -21.392  1.00  0.00    -0.373 OA
ATOM     15  H   UNL     1     -19.969   0.617 -20.776  1.00  0.00     0.212 HD
ENDBRANCH   4  14
ENDBRANCH   3   4
ENDBRANCH   1   3
BRANCH   1  16
ATOM     16  C   UNL     1     -17.248   0.413 -22.136  1.00  0.00     0.018 A 
ATOM     17  C   UNL     1     -17.266   0.118 -20.766  1.00  0.00     0.019 A 
ATOM     18  C   UNL     1     -16.114   0.097 -22.899  1.00  0.00     0.019 A 
ATOM     19  C   UNL     1     -16.163  -0.502 -20.166  1.00  0.00     0.086 A 
ATOM     20  C   UNL     1     -15.009  -0.522 -22.308  1.00  0.00     0.086 A 
ATOM     21  C   UNL     1     -15.038  -0.822 -20.941  1.00  0.00     0.269 A 
BRANCH  21  22
ATOM     22  N   UNL     1     -13.881  -1.471 -20.310  1.00  0.00     0.062 N 
ATOM     23  O   UNL     1     -13.297  -2.357 -20.950  1.00  0.00    -0.258 OA
ATOM     24  O   UNL     1     -13.559  -1.093 -19.174  1.00  0.00    -0.258 OA
ENDBRANCH  21  22
ENDBRANCH   1  16
TORSDOF 5
ENDMDL
MODEL 8
REMARK VINA RESULT:    -5.512      3.007      4.856
REMARK INTER + INTRA:          -7.536
REMARK INTER:                  -6.298
REMARK INTRA:                  -1.238
REMARK UNBOUND:                -0.574
REMARK SMILES O=C(C[C@@]1(O)C(=O)Oc2ccccc21)c1ccc([N+](=O)[O-])cc1
REMARK SMILES IDX 2 1 1 2 3 3 4 4 14 5 6 6 13 7 9 8 8 9 7 10 12 11 10 12 11 13
REMARK SMILES IDX 5 14 15 16 16 17 23 18 17 19 22 20 18 21 19 22 20 23 21 24
REMARK H PARENT 5 15
ROOT
ATOM      1  C   UNL     1     -18.686   1.030 -22.656  1.00  0.00     0.166 C 
ATOM      2  O   UNL     1     -19.311   0.620 -23.632  1.00  0.00    -0.294 OA
ENDROOT
BRANCH   1   3
ATOM      3  C   UNL     1     -17.169   0.999 -22.616  1.00  0.00     0.133 C 
BRANCH   3   4
ATOM      4  C   UNL     1     -16.656  -0.406 -22.272  1.00  0.00     0.198 C 
ATOM      5  C   UNL     1     -16.238  -0.484 -20.848  1.00  0.00     0.038 A 
ATOM      6  C   UNL     1     -15.286  -0.647 -22.966  1.00  0.00     0.348 C 
ATOM      7  C   UNL     1     -16.980  -0.396 -19.681  1.00  0.00     0.011 A 
ATOM      8  C   UNL     1     -14.869  -0.678 -20.803  1.00  0.00     0.137 A 
ATOM      9  O   UNL     1     -14.254  -0.762 -22.038  1.00  0.00    -0.424 OA
ATOM     10  O   UNL     1     -15.100  -0.690 -24.176  1.00  0.00    -0.248 OA
ATOM     11  C   UNL     1     -16.309  -0.496 -18.460  1.00  0.00     0.001 A 
ATOM     12  C   UNL     1     -14.184  -0.778 -19.608  1.00  0.00     0.047 A 
ATOM     13  C   UNL     1     -14.918  -0.683 -18.423  1.00  0.00     0.004 A 
BRANCH   4  14
ATOM     14  O   UNL     1     -17.640  -1.401 -22.488  1.00  0.00    -0.373 OA
ATOM     15  H   UNL     1     -18.323  -1.265 -21.794  1.00  0.00     0.212 HD
ENDBRANCH   4  14
ENDBRANCH   3   4
ENDBRANCH   1   3
BRANCH   1  16
ATOM     16  C   UNL     1     -19.435   1.542 -21.475  1.00  0.00     0.018 A 
ATOM     17  C   UNL     1     -20.332   0.740 -20.757  1.00  0.00     0.019 A 
ATOM     18  C   UNL     1     -19.240   2.878 -21.093  1.00  0.00     0.019 A 
ATOM     19  C   UNL     1     -21.019   1.266 -19.657  1.00  0.00     0.086 A 
ATOM     20  C   UNL     1     -19.921   3.410 -19.994  1.00  0.00     0.086 A 
ATOM     21  C   UNL     1     -20.810   2.600 -19.277  1.00  0.00     0.269 A 
BRANCH  21  22
ATOM     22  N   UNL     1     -21.531   3.151 -18.123  1.00  0.00     0.062 N 
ATOM     23  O   UNL     1     -21.730   2.402 -17.156  1.00  0.00    -0.258 OA
ATOM     24  O   UNL     1     -21.898   4.333 -18.185  1.00  0.00    -0.258 OA
ENDBRANCH  21  22
ENDBRANCH   1  16
TORSDOF 5
ENDMDL
MODEL 9
REMARK VINA RESULT:    -5.448     12.419     14.064
REMARK INTER + INTRA:          -7.455
REMARK INTER:                  -6.788
REMARK INTRA:                  -0.668
REMARK UNBOUND:                -0.574
REMARK SMILES O=C(C[C@@]1(O)C(=O)Oc2ccccc21)c1ccc([N+](=O)[O-])cc1
REMARK SMILES IDX 2 1 1 2 3 3 4 4 14 5 6 6 13 7 9 8 8 9 7 10 12 11 10 12 11 13
REMARK SMILES IDX 5 14 15 16 16 17 23 18 17 19 22 20 18 21 19 22 20 23 21 24
REMARK H PARENT 5 15
ROOT
ATOM      1  C   UNL     1     -13.898  -0.989  -9.963  1.00  0.00     0.166 C 
ATOM      2  O   UNL     1     -13.822  -1.697 -10.965  1.00  0.00    -0.294 OA
ENDROOT
BRANCH   1   3
ATOM      3  C   UNL     1     -12.730  -0.842  -9.006  1.00  0.00     0.133 C 
BRANCH   3   4
ATOM      4  C   UNL     1     -11.526  -0.192  -9.703  1.00  0.00     0.198 C 
ATOM      5  C   UNL     1     -10.306  -0.297  -8.861  1.00  0.00     0.038 A 
ATOM      6  C   UNL     1     -11.705   1.353  -9.722  1.00  0.00     0.348 C 
ATOM      7  C   UNL     1      -9.568  -1.404  -8.473  1.00  0.00     0.011 A 
ATOM      8  C   UNL     1      -9.938   0.974  -8.461  1.00  0.00     0.137 A 
ATOM      9  O   UNL     1     -10.751   1.988  -8.931  1.00  0.00    -0.424 OA
ATOM     10  O   UNL     1     -12.591   1.959 -10.311  1.00  0.00    -0.248 OA
ATOM     11  C   UNL     1      -8.452  -1.203  -7.656  1.00  0.00     0.001 A 
ATOM     12  C   UNL     1      -8.840   1.197  -7.653  1.00  0.00     0.047 A 
ATOM     13  C   UNL     1      -8.091   0.090  -7.246  1.00  0.00     0.004 A 
BRANCH   4  14
ATOM     14  O   UNL     1     -11.243  -0.795 -10.952  1.00  0.00    -0.373 OA
ATOM     15  H   UNL     1     -12.054  -1.289 -11.207  1.00  0.00     0.212 HD
ENDBRANCH   4  14
ENDBRANCH   3   4
ENDBRANCH   1   3
BRANCH   1  16
ATOM     16  C   UNL     1     -15.175  -0.282  -9.667  1.00  0.00     0.018 A 
ATOM     17  C   UNL     1     -15.888  -0.499  -8.480  1.00  0.00     0.019 A 
ATOM     18  C   UNL     1     -15.677   0.611 -10.625  1.00  0.00     0.019 A 
ATOM     19  C   UNL     1     -17.088   0.184  -8.247  1.00  0.00     0.086 A 
ATOM     20  C   UNL     1     -16.874   1.297 -10.399  1.00  0.00     0.086 A 
ATOM     21  C   UNL     1     -17.577   1.082  -9.208  1.00  0.00     0.269 A 
BRANCH  21  22
ATOM     22  N   UNL     1     -18.836   1.797  -8.962  1.00  0.00     0.062 N 
ATOM     23  O   UNL     1     -19.147   2.029  -7.786  1.00  0.00    -0.258 OA
ATOM     24  O   UNL     1     -19.512   2.126  -9.948  1.00  0.00    -0.258 OA
ENDBRANCH  21  22
ENDBRANCH   1  16
TORSDOF 5
ENDMDL
MODEL 10
REMARK VINA RESULT:    -5.432     13.401     15.064
REMARK INTER + INTRA:          -7.435
REMARK INTER:                  -6.761
REMARK INTRA:                  -0.674
REMARK UNBOUND:                -0.574
REMARK SMILES O=C(C[C@@]1(O)C(=O)Oc2ccccc21)c1ccc([N+](=O)[O-])cc1
REMARK SMILES IDX 2 1 1 2 3 3 4 4 14 5 6 6 13 7 9 8 8 9 7 10 12 11 10 12 11 13
REMARK SMILES IDX 5 14 15 16 16 17 23 18 17 19 22 20 18 21 19 22 20 23 21 24
REMARK H PARENT 5 15
ROOT
ATOM      1  C   UNL     1     -11.847   0.335  -9.607  1.00  0.00     0.166 C 
ATOM      2  O   UNL     1     -11.443  -0.276 -10.594  1.00  0.00    -0.294 OA
ENDROOT
BRANCH   1   3
ATOM      3  C   UNL     1     -10.918   0.691  -8.461  1.00  0.00     0.133 C 
BRANCH   3   4
ATOM      4  C   UNL     1      -9.641   1.369  -8.978  1.00  0.00     0.198 C 
ATOM      5  C   UNL     1      -8.493   0.426  -8.953  1.00  0.00     0.038 A 
ATOM      6  C   UNL     1      -9.149   2.417  -7.940  1.00  0.00     0.348 C 
ATOM      7  C   UNL     1      -8.255  -0.729  -9.681  1.00  0.00     0.011 A 
ATOM      8  C   UNL     1      -7.578   0.874  -8.019  1.00  0.00     0.137 A 
ATOM      9  O   UNL     1      -7.931   2.045  -7.375  1.00  0.00    -0.424 OA
ATOM     10  O   UNL     1      -9.755   3.428  -7.608  1.00  0.00    -0.248 OA
ATOM     11  C   UNL     1      -7.074  -1.434  -9.438  1.00  0.00     0.001 A 
ATOM     12  C   UNL     1      -6.404   0.194  -7.760  1.00  0.00     0.047 A 
ATOM     13  C   UNL     1      -6.154  -0.977  -8.480  1.00  0.00     0.004 A 
BRANCH   4  14
ATOM     14  O   UNL     1      -9.786   1.838 -10.306  1.00  0.00    -0.373 OA
ATOM     15  H   UNL     1      -9.880   2.814 -10.242  1.00  0.00     0.212 HD
ENDBRANCH   4  14
ENDBRANCH   3   4
ENDBRANCH   1   3
BRANCH   1  16
ATOM     16  C   UNL     1     -13.287   0.707  -9.520  1.00  0.00     0.018 A 
ATOM     17  C   UNL     1     -14.276  -0.223  -9.176  1.00  0.00     0.019 A 
ATOM     18  C   UNL     1     -13.649   2.030  -9.815  1.00  0.00     0.019 A 
ATOM     19  C   UNL     1     -15.619   0.171  -9.113  1.00  0.00     0.086 A 
ATOM     20  C   UNL     1     -14.987   2.431  -9.753  1.00  0.00     0.086 A 
ATOM     21  C   UNL     1     -15.969   1.499  -9.400  1.00  0.00     0.269 A 
BRANCH  21  22
ATOM     22  N   UNL     1     -17.377   1.910  -9.334  1.00  0.00     0.062 N 
ATOM     23  O   UNL     1     -18.085   1.707 -10.330  1.00  0.00    -0.258 OA
ATOM     24  O   UNL     1     -17.773   2.437  -8.284  1.00  0.00    -0.258 OA
ENDBRANCH  21  22
ENDBRANCH   1  16
TORSDOF 5
ENDMDL
MODEL 11
REMARK VINA RESULT:    -5.396      4.615      7.574
REMARK INTER + INTRA:          -7.389
REMARK INTER:                  -6.464
REMARK INTRA:                  -0.925
REMARK UNBOUND:                -0.574
REMARK SMILES O=C(C[C@@]1(O)C(=O)Oc2ccccc21)c1ccc([N+](=O)[O-])cc1
REMARK SMILES IDX 2 1 1 2 3 3 4 4 14 5 6 6 13 7 9 8 8 9 7 10 12 11 10 12 11 13
REMARK SMILES IDX 5 14 15 16 16 17 23 18 17 19 22 20 18 21 19 22 20 23 21 24
REMARK H PARENT 5 15
ROOT
ATOM      1  C   UNL     1     -15.297  -1.014 -20.474  1.00  0.00     0.166 C 
ATOM      2  O   UNL     1     -14.251  -1.221 -21.087  1.00  0.00    -0.294 OA
ENDROOT
BRANCH   1   3
ATOM      3  C   UNL     1     -15.558  -1.643 -19.118  1.00  0.00     0.133 C 
BRANCH   3   4
ATOM      4  C   UNL     1     -14.716  -0.967 -18.027  1.00  0.00     0.198 C 
ATOM      5  C   UNL     1     -13.864  -1.961 -17.322  1.00  0.00     0.038 A 
ATOM      6  C   UNL     1     -15.637  -0.527 -16.854  1.00  0.00     0.348 C 
ATOM      7  C   UNL     1     -12.793  -2.716 -17.775  1.00  0.00     0.011 A 
ATOM      8  C   UNL     1     -14.300  -2.064 -16.015  1.00  0.00     0.137 A 
ATOM      9  O   UNL     1     -15.366  -1.245 -15.692  1.00  0.00    -0.424 OA
ATOM     10  O   UNL     1     -16.527   0.311 -16.925  1.00  0.00    -0.248 OA
ATOM     11  C   UNL     1     -12.176  -3.592 -16.879  1.00  0.00     0.001 A 
ATOM     12  C   UNL     1     -13.706  -2.924 -15.112  1.00  0.00     0.047 A 
ATOM     13  C   UNL     1     -12.631  -3.699 -15.555  1.00  0.00     0.004 A 
BRANCH   4  14
ATOM     14  O   UNL     1     -13.866   0.035 -18.553  1.00  0.00    -0.373 OA
ATOM     15  H   UNL     1     -14.312   0.893 -18.376  1.00  0.00     0.212 HD
ENDBRANCH   4  14
ENDBRANCH   3   4
ENDBRANCH   1   3
BRANCH   1  16
ATOM     16  C   UNL     1     -16.342  -0.150 -21.089  1.00  0.00     0.018 A 
ATOM     17  C   UNL     1     -16.251   0.301 -22.413  1.00  0.00     0.019 A 
ATOM     18  C   UNL     1     -17.437   0.232 -20.299  1.00  0.00     0.019 A 
ATOM     19  C   UNL     1     -17.255   1.117 -22.947  1.00  0.00     0.086 A 
ATOM     20  C   UNL     1     -18.444   1.047 -20.826  1.00  0.00     0.086 A 
ATOM     21  C   UNL     1     -18.350   1.486 -22.152  1.00  0.00     0.269 A 
BRANCH  21  22
ATOM     22  N   UNL     1     -19.402   2.343 -22.714  1.00  0.00     0.062 N 
ATOM     23  O   UNL     1     -20.199   2.871 -21.925  1.00  0.00    -0.258 OA
ATOM     24  O   UNL     1     -19.430   2.486 -23.945  1.00  0.00    -0.258 OA
ENDBRANCH  21  22
ENDBRANCH   1  16
TORSDOF 5
ENDMDL
MODEL 12
REMARK VINA RESULT:    -5.376      2.055      3.284
REMARK INTER + INTRA:          -7.364
REMARK INTER:                  -6.447
REMARK INTRA:                  -0.916
REMARK UNBOUND:                -0.574
REMARK SMILES O=C(C[C@@]1(O)C(=O)Oc2ccccc21)c1ccc([N+](=O)[O-])cc1
REMARK SMILES IDX 2 1 1 2 3 3 4 4 14 5 6 6 13 7 9 8 8 9 7 10 12 11 10 12 11 13
REMARK SMILES IDX 5 14 15 16 16 17 23 18 17 19 22 20 18 21 19 22 20 23 21 24
REMARK H PARENT 5 15
ROOT
ATOM      1  C   UNL     1     -19.558   1.869 -22.197  1.00  0.00     0.166 C 
ATOM      2  O   UNL     1     -20.416   1.283 -22.855  1.00  0.00    -0.294 OA
ENDROOT
BRANCH   1   3
ATOM      3  C   UNL     1     -18.094   1.479 -22.279  1.00  0.00     0.133 C 
BRANCH   3   4
ATOM      4  C   UNL     1     -17.923  -0.042 -22.153  1.00  0.00     0.198 C 
ATOM      5  C   UNL     1     -16.741  -0.374 -21.315  1.00  0.00     0.038 A 
ATOM      6  C   UNL     1     -17.457  -0.629 -23.516  1.00  0.00     0.348 C 
ATOM      7  C   UNL     1     -16.504  -0.169 -19.965  1.00  0.00     0.011 A 
ATOM      8  C   UNL     1     -15.793  -0.984 -22.115  1.00  0.00     0.137 A 
ATOM      9  O   UNL     1     -16.164  -1.141 -23.437  1.00  0.00    -0.424 OA
ATOM     10  O   UNL     1     -18.105  -0.616 -24.555  1.00  0.00    -0.248 OA
ATOM     11  C   UNL     1     -15.278  -0.582 -19.438  1.00  0.00     0.001 A 
ATOM     12  C   UNL     1     -14.574  -1.400 -21.617  1.00  0.00     0.047 A 
ATOM     13  C   UNL     1     -14.316  -1.192 -20.260  1.00  0.00     0.004 A 
BRANCH   4  14
ATOM     14  O   UNL     1     -19.055  -0.660 -21.570  1.00  0.00    -0.373 OA
ATOM     15  H   UNL     1     -19.496  -1.159 -22.293  1.00  0.00     0.212 HD
ENDBRANCH   4  14
ENDBRANCH   3   4
ENDBRANCH   1   3
BRANCH   1  16
ATOM     16  C   UNL     1     -19.969   2.967 -21.278  1.00  0.00     0.018 A 
ATOM     17  C   UNL     1     -21.124   3.729 -21.500  1.00  0.00     0.019 A 
ATOM     18  C   UNL     1     -19.153   3.247 -20.173  1.00  0.00     0.019 A 
ATOM     19  C   UNL     1     -21.469   4.756 -20.612  1.00  0.00     0.086 A 
ATOM     20  C   UNL     1     -19.491   4.270 -19.281  1.00  0.00     0.086 A 
ATOM     21  C   UNL     1     -20.651   5.022 -19.503  1.00  0.00     0.269 A 
BRANCH  21  22
ATOM     22  N   UNL     1     -21.013   6.099 -18.574  1.00  0.00     0.062 N 
ATOM     23  O   UNL     1     -20.215   6.370 -17.666  1.00  0.00    -0.258 OA
ATOM     24  O   UNL     1     -22.097   6.674 -18.754  1.00  0.00    -0.258 OA
ENDBRANCH  21  22
ENDBRANCH   1  16
TORSDOF 5
ENDMDL
MODEL 13
REMARK VINA RESULT:    -5.316      4.319      7.118
REMARK INTER + INTRA:          -7.288
REMARK INTER:                  -6.243
REMARK INTRA:                  -1.045
REMARK UNBOUND:                -0.574
REMARK SMILES O=C(C[C@@]1(O)C(=O)Oc2ccccc21)c1ccc([N+](=O)[O-])cc1
REMARK SMILES IDX 2 1 1 2 3 3 4 4 14 5 6 6 13 7 9 8 8 9 7 10 12 11 10 12 11 13
REMARK SMILES IDX 5 14 15 16 16 17 23 18 17 19 22 20 18 21 19 22 20 23 21 24
REMARK H PARENT 5 15
ROOT
ATOM      1  C   UNL     1     -15.611  -0.641 -21.646  1.00  0.00     0.166 C 
ATOM      2  O   UNL     1     -15.448  -1.333 -22.649  1.00  0.00    -0.294 OA
ENDROOT
BRANCH   1   3
ATOM      3  C   UNL     1     -14.632  -0.681 -20.487  1.00  0.00     0.133 C 
BRANCH   3   4
ATOM      4  C   UNL     1     -14.576  -2.083 -19.863  1.00  0.00     0.198 C 
ATOM      5  C   UNL     1     -14.787  -2.019 -18.394  1.00  0.00     0.038 A 
ATOM      6  C   UNL     1     -13.115  -2.613 -19.901  1.00  0.00     0.348 C 
ATOM      7  C   UNL     1     -15.904  -1.662 -17.655  1.00  0.00     0.011 A 
ATOM      8  C   UNL     1     -13.615  -2.398 -17.766  1.00  0.00     0.137 A 
ATOM      9  O   UNL     1     -12.584  -2.743 -18.619  1.00  0.00    -0.424 OA
ATOM     10  O   UNL     1     -12.471  -2.852 -20.915  1.00  0.00    -0.248 OA
ATOM     11  C   UNL     1     -15.811  -1.684 -16.261  1.00  0.00     0.001 A 
ATOM     12  C   UNL     1     -13.499  -2.426 -16.390  1.00  0.00     0.047 A 
ATOM     13  C   UNL     1     -14.614  -2.061 -15.631  1.00  0.00     0.004 A 
BRANCH   4  14
ATOM     14  O   UNL     1     -15.559  -2.947 -20.403  1.00  0.00    -0.373 OA
ATOM     15  H   UNL     1     -16.423  -2.498 -20.265  1.00  0.00     0.212 HD
ENDBRANCH   4  14
ENDBRANCH   3   4
ENDBRANCH   1   3
BRANCH   1  16
ATOM     16  C   UNL     1     -16.812   0.236 -21.555  1.00  0.00     0.018 A 
ATOM     17  C   UNL     1     -17.605   0.294 -20.402  1.00  0.00     0.019 A 
ATOM     18  C   UNL     1     -17.156   1.008 -22.675  1.00  0.00     0.019 A 
ATOM     19  C   UNL     1     -18.729   1.129 -20.363  1.00  0.00     0.086 A 
ATOM     20  C   UNL     1     -18.276   1.844 -22.644  1.00  0.00     0.086 A 
ATOM     21  C   UNL     1     -19.059   1.904 -21.486  1.00  0.00     0.269 A 
BRANCH  21  22
ATOM     22  N   UNL     1     -20.238   2.778 -21.444  1.00  0.00     0.062 N 
ATOM     23  O   UNL     1     -21.187   2.503 -22.191  1.00  0.00    -0.258 OA
ATOM     24  O   UNL     1     -20.212   3.741 -20.663  1.00  0.00    -0.258 OA
ENDBRANCH  21  22
ENDBRANCH   1  16
TORSDOF 5
ENDMDL
MODEL 14
REMARK VINA RESULT:    -5.226      3.860      7.676
REMARK INTER + INTRA:          -7.174
REMARK INTER:                  -6.116
REMARK INTRA:                  -1.058
REMARK UNBOUND:                -0.574
REMARK SMILES O=C(C[C@@]1(O)C(=O)Oc2ccccc21)c1ccc([N+](=O)[O-])cc1
REMARK SMILES IDX 2 1 1 2 3 3 4 4 14 5 6 6 13 7 9 8 8 9 7 10 12 11 10 12 11 13
REMARK SMILES IDX 5 14 15 16 16 17 23 18 17 19 22 20 18 21 19 22 20 23 21 24
REMARK H PARENT 5 15
ROOT
ATOM      1  C   UNL     1     -18.453   0.927 -19.687  1.00  0.00     0.166 C 
ATOM      2  O   UNL     1     -18.695   0.237 -18.698  1.00  0.00    -0.294 OA
ENDROOT
BRANCH   1   3
ATOM      3  C   UNL     1     -19.178   2.236 -19.937  1.00  0.00     0.133 C 
BRANCH   3   4
ATOM      4  C   UNL     1     -20.689   2.008 -20.083  1.00  0.00     0.198 C 
ATOM      5  C   UNL     1     -21.211   2.674 -21.305  1.00  0.00     0.038 A 
ATOM      6  C   UNL     1     -21.447   2.818 -18.994  1.00  0.00     0.348 C 
ATOM      7  C   UNL     1     -20.975   2.416 -22.646  1.00  0.00     0.011 A 
ATOM      8  C   UNL     1     -22.057   3.697 -20.920  1.00  0.00     0.137 A 
ATOM      9  O   UNL     1     -22.215   3.836 -19.554  1.00  0.00    -0.424 OA
ATOM     10  O   UNL     1     -21.363   2.637 -17.785  1.00  0.00    -0.248 OA
ATOM     11  C   UNL     1     -21.604   3.224 -23.597  1.00  0.00     0.001 A 
ATOM     12  C   UNL     1     -22.689   4.509 -21.841  1.00  0.00     0.047 A 
ATOM     13  C   UNL     1     -22.454   4.267 -23.197  1.00  0.00     0.004 A 
BRANCH   4  14
ATOM     14  O   UNL     1     -21.016   0.633 -20.167  1.00  0.00    -0.373 OA
ATOM     15  H   UNL     1     -21.889   0.532 -19.727  1.00  0.00     0.212 HD
ENDBRANCH   4  14
ENDBRANCH   3   4
ENDBRANCH   1   3
BRANCH   1  16
ATOM     16  C   UNL     1     -17.445   0.452 -20.676  1.00  0.00     0.018 A 
ATOM     17  C   UNL     1     -16.416  -0.432 -20.325  1.00  0.00     0.019 A 
ATOM     18  C   UNL     1     -17.531   0.930 -21.992  1.00  0.00     0.019 A 
ATOM     19  C   UNL     1     -15.487  -0.847 -21.287  1.00  0.00     0.086 A 
ATOM     20  C   UNL     1     -16.607   0.520 -22.959  1.00  0.00     0.086 A 
ATOM     21  C   UNL     1     -15.587  -0.370 -22.603  1.00  0.00     0.269 A 
BRANCH  21  22
ATOM     22  N   UNL     1     -14.612  -0.806 -23.611  1.00  0.00     0.062 N 
ATOM     23  O   UNL     1     -14.629  -1.996 -23.953  1.00  0.00    -0.258 OA
ATOM     24  O   UNL     1     -13.830   0.045 -24.059  1.00  0.00    -0.258 OA
ENDBRANCH  21  22
ENDBRANCH   1  16
TORSDOF 5
ENDMDL
MODEL 15
REMARK VINA RESULT:    -5.119      1.541      2.006
REMARK INTER + INTRA:          -7.039
REMARK INTER:                  -6.423
REMARK INTRA:                  -0.616
REMARK UNBOUND:                -0.574
REMARK SMILES O=C(C[C@@]1(O)C(=O)Oc2ccccc21)c1ccc([N+](=O)[O-])cc1
REMARK SMILES IDX 2 1 1 2 3 3 4 4 14 5 6 6 13 7 9 8 8 9 7 10 12 11 10 12 11 13
REMARK SMILES IDX 5 14 15 16 16 17 23 18 17 19 22 20 18 21 19 22 20 23 21 24
REMARK H PARENT 5 15
ROOT
ATOM      1  C   UNL     1     -20.798   3.851 -21.061  1.00  0.00     0.166 C 
ATOM      2  O   UNL     1     -21.358   3.651 -22.137  1.00  0.00    -0.294 OA
ENDROOT
BRANCH   1   3
ATOM      3  C   UNL     1     -19.479   3.184 -20.718  1.00  0.00     0.133 C 
BRANCH   3   4
ATOM      4  C   UNL     1     -19.402   1.774 -21.322  1.00  0.00     0.198 C 
ATOM      5  C   UNL     1     -18.506   0.902 -20.520  1.00  0.00     0.038 A 
ATOM      6  C   UNL     1     -18.606   1.821 -22.656  1.00  0.00     0.348 C 
ATOM      7  C   UNL     1     -18.636   0.414 -19.229  1.00  0.00     0.011 A 
ATOM      8  C   UNL     1     -17.398   0.588 -21.286  1.00  0.00     0.137 A 
ATOM      9  O   UNL     1     -17.401   1.128 -22.558  1.00  0.00    -0.424 OA
ATOM     10  O   UNL     1     -18.947   2.422 -23.668  1.00  0.00    -0.248 OA
ATOM     11  C   UNL     1     -17.615  -0.392 -18.719  1.00  0.00     0.001 A 
ATOM     12  C   UNL     1     -16.376  -0.204 -20.803  1.00  0.00     0.047 A 
ATOM     13  C   UNL     1     -16.489  -0.696 -19.500  1.00  0.00     0.004 A 
BRANCH   4  14
ATOM     14  O   UNL     1     -20.671   1.150 -21.383  1.00  0.00    -0.373 OA
ATOM     15  H   UNL     1     -20.588   0.426 -22.043  1.00  0.00     0.212 HD
ENDBRANCH   4  14
ENDBRANCH   3   4
ENDBRANCH   1   3
BRANCH   1  16
ATOM     16  C   UNL     1     -21.444   4.746 -20.060  1.00  0.00     0.018 A 
ATOM     17  C   UNL     1     -22.758   5.208 -20.214  1.00  0.00     0.019 A 
ATOM     18  C   UNL     1     -20.693   5.144 -18.944  1.00  0.00     0.019 A 
ATOM     19  C   UNL     1     -23.322   6.053 -19.250  1.00  0.00     0.086 A 
ATOM     20  C   UNL     1     -21.250   5.987 -17.977  1.00  0.00     0.086 A 
ATOM     21  C   UNL     1     -22.566   6.438 -18.132  1.00  0.00     0.269 A 
BRANCH  21  22
ATOM     22  N   UNL     1     -23.159   7.324 -17.123  1.00  0.00     0.062 N 
ATOM     23  O   UNL     1     -23.160   8.542 -17.353  1.00  0.00    -0.258 OA
ATOM     24  O   UNL     1     -23.623   6.800 -16.100  1.00  0.00    -0.258 OA
ENDBRANCH  21  22
ENDBRANCH   1  16
TORSDOF 5
ENDMDL
MODEL 16
REMARK VINA RESULT:    -5.095      5.187      8.837
REMARK INTER + INTRA:          -7.010
REMARK INTER:                  -5.882
REMARK INTRA:                  -1.128
REMARK UNBOUND:                -0.574
REMARK SMILES O=C(C[C@@]1(O)C(=O)Oc2ccccc21)c1ccc([N+](=O)[O-])cc1
REMARK SMILES IDX 2 1 1 2 3 3 4 4 14 5 6 6 13 7 9 8 8 9 7 10 12 11 10 12 11 13
REMARK SMILES IDX 5 14 15 16 16 17 23 18 17 19 22 20 18 21 19 22 20 23 21 24
REMARK H PARENT 5 15
ROOT
ATOM      1  C   UNL     1     -17.036  -1.284 -17.872  1.00  0.00     0.166 C 
ATOM      2  O   UNL     1     -17.638  -1.965 -17.044  1.00  0.00    -0.294 OA
ENDROOT
BRANCH   1   3
ATOM      3  C   UNL     1     -17.582   0.048 -18.351  1.00  0.00     0.133 C 
BRANCH   3   4
ATOM      4  C   UNL     1     -18.685  -0.155 -19.399  1.00  0.00     0.198 C 
ATOM      5  C   UNL     1     -18.320   0.493 -20.686  1.00  0.00     0.038 A 
ATOM      6  C   UNL     1     -19.931   0.693 -19.017  1.00  0.00     0.348 C 
ATOM      7  C   UNL     1     -17.313   0.201 -21.592  1.00  0.00     0.011 A 
ATOM      8  C   UNL     1     -19.194   1.540 -20.913  1.00  0.00     0.137 A 
ATOM      9  O   UNL     1     -20.159   1.713 -19.939  1.00  0.00    -0.424 OA
ATOM     10  O   UNL     1     -20.618   0.537 -18.015  1.00  0.00    -0.248 OA
ATOM     11  C   UNL     1     -17.196   0.999 -22.733  1.00  0.00     0.001 A 
ATOM     12  C   UNL     1     -19.097   2.343 -22.033  1.00  0.00     0.047 A 
ATOM     13  C   UNL     1     -18.081   2.066 -22.951  1.00  0.00     0.004 A 
BRANCH   4  14
ATOM     14  O   UNL     1     -18.929  -1.525 -19.660  1.00  0.00    -0.373 OA
ATOM     15  H   UNL     1     -18.048  -1.937 -19.802  1.00  0.00     0.212 HD
ENDBRANCH   4  14
ENDBRANCH   3   4
ENDBRANCH   1   3
BRANCH   1  16
ATOM     16  C   UNL     1     -15.755  -1.792 -18.439  1.00  0.00     0.018 A 
ATOM     17  C   UNL     1     -15.373  -3.135 -18.326  1.00  0.00     0.019 A 
ATOM     18  C   UNL     1     -14.908  -0.880 -19.085  1.00  0.00     0.019 A 
ATOM     19  C   UNL     1     -14.157  -3.567 -18.869  1.00  0.00     0.086 A 
ATOM     20  C   UNL     1     -13.692  -1.304 -19.631  1.00  0.00     0.086 A 
ATOM     21  C   UNL     1     -13.320  -2.649 -19.522  1.00  0.00     0.269 A 
BRANCH  21  22
ATOM     22  N   UNL     1     -12.045  -3.103 -20.090  1.00  0.00     0.062 N 
ATOM     23  O   UNL     1     -11.157  -3.461 -19.304  1.00  0.00    -0.258 OA
ATOM     24  O   UNL     1     -11.933  -3.102 -21.325  1.00  0.00    -0.258 OA
ENDBRANCH  21  22
ENDBRANCH   1  16
TORSDOF 5
ENDMDL
MODEL 17
REMARK VINA RESULT:    -5.087      5.969      7.986
REMARK INTER + INTRA:          -7.000
REMARK INTER:                  -5.734
REMARK INTRA:                  -1.266
REMARK UNBOUND:                -0.574
REMARK SMILES O=C(C[C@@]1(O)C(=O)Oc2ccccc21)c1ccc([N+](=O)[O-])cc1
REMARK SMILES IDX 2 1 1 2 3 3 4 4 14 5 6 6 13 7 9 8 8 9 7 10 12 11 10 12 11 13
REMARK SMILES IDX 5 14 15 16 16 17 23 18 17 19 22 20 18 21 19 22 20 23 21 24
REMARK H PARENT 5 15
ROOT
ATOM      1  C   UNL     1     -14.367  -2.215 -20.877  1.00  0.00     0.166 C 
ATOM      2  O   UNL     1     -13.157  -2.411 -20.970  1.00  0.00    -0.294 OA
ENDROOT
BRANCH   1   3
ATOM      3  C   UNL     1     -15.300  -2.446 -22.050  1.00  0.00     0.133 C 
BRANCH   3   4
ATOM      4  C   UNL     1     -15.358  -1.210 -22.959  1.00  0.00     0.198 C 
ATOM      5  C   UNL     1     -16.566  -0.395 -22.669  1.00  0.00     0.038 A 
ATOM      6  C   UNL     1     -15.675  -1.648 -24.417  1.00  0.00     0.348 C 
ATOM      7  C   UNL     1     -16.916   0.334 -21.543  1.00  0.00     0.011 A 
ATOM      8  C   UNL     1     -17.402  -0.442 -23.769  1.00  0.00     0.137 A 
ATOM      9  O   UNL     1     -16.926  -1.191 -24.828  1.00  0.00    -0.424 OA
ATOM     10  O   UNL     1     -14.957  -2.345 -25.123  1.00  0.00    -0.248 OA
ATOM     11  C   UNL     1     -18.140   1.008 -21.545  1.00  0.00     0.001 A 
ATOM     12  C   UNL     1     -18.617   0.215 -23.793  1.00  0.00     0.047 A 
ATOM     13  C   UNL     1     -18.987   0.947 -22.662  1.00  0.00     0.004 A 
BRANCH   4  14
ATOM     14  O   UNL     1     -14.225  -0.377 -22.799  1.00  0.00    -0.373 OA
ATOM     15  H   UNL     1     -14.439   0.236 -22.061  1.00  0.00     0.212 HD
ENDBRANCH   4  14
ENDBRANCH   3   4
ENDBRANCH   1   3
BRANCH   1  16
ATOM     16  C   UNL     1     -14.926  -1.711 -19.591  1.00  0.00     0.018 A 
ATOM     17  C   UNL     1     -14.339  -0.649 -18.890  1.00  0.00     0.019 A 
ATOM     18  C   UNL     1     -16.063  -2.345 -19.068  1.00  0.00     0.019 A 
ATOM     19  C   UNL     1     -14.896  -0.213 -17.681  1.00  0.00     0.086 A 
ATOM     20  C   UNL     1     -16.625  -1.915 -17.862  1.00  0.00     0.086 A 
ATOM     21  C   UNL     1     -16.039  -0.847 -17.172  1.00  0.00     0.269 A 
BRANCH  21  22
ATOM     22  N   UNL     1     -16.621  -0.389 -15.904  1.00  0.00     0.062 N 
ATOM     23  O   UNL     1     -15.848  -0.159 -14.964  1.00  0.00    -0.258 OA
ATOM     24  O   UNL     1     -17.853  -0.260 -15.850  1.00  0.00    -0.258 OA
ENDBRANCH  21  22
ENDBRANCH   1  16
TORSDOF 5
ENDMDL
MODEL 18
REMARK VINA RESULT:    -5.083     15.430     17.368
REMARK INTER + INTRA:          -6.994
REMARK INTER:                  -5.865
REMARK INTRA:                  -1.128
REMARK UNBOUND:                -0.574
REMARK SMILES O=C(C[C@@]1(O)C(=O)Oc2ccccc21)c1ccc([N+](=O)[O-])cc1
REMARK SMILES IDX 2 1 1 2 3 3 4 4 14 5 6 6 13 7 9 8 8 9 7 10 12 11 10 12 11 13
REMARK SMILES IDX 5 14 15 16 16 17 23 18 17 19 22 20 18 21 19 22 20 23 21 24
REMARK H PARENT 5 15
ROOT
ATOM      1  C   UNL     1      -7.592   2.396  -8.555  1.00  0.00     0.166 C 
ATOM      2  O   UNL     1      -7.404   3.602  -8.711  1.00  0.00    -0.294 OA
ENDROOT
BRANCH   1   3
ATOM      3  C   UNL     1      -6.506   1.489  -8.011  1.00  0.00     0.133 C 
BRANCH   3   4
ATOM      4  C   UNL     1      -5.780   0.755  -9.147  1.00  0.00     0.198 C 
ATOM      5  C   UNL     1      -6.157  -0.682  -9.176  1.00  0.00     0.038 A 
ATOM      6  C   UNL     1      -4.269   0.628  -8.807  1.00  0.00     0.348 C 
ATOM      7  C   UNL     1      -7.367  -1.294  -9.463  1.00  0.00     0.011 A 
ATOM      8  C   UNL     1      -5.043  -1.435  -8.851  1.00  0.00     0.137 A 
ATOM      9  O   UNL     1      -3.900  -0.700  -8.603  1.00  0.00    -0.424 OA
ATOM     10  O   UNL     1      -3.487   1.562  -8.681  1.00  0.00    -0.248 OA
ATOM     11  C   UNL     1      -7.435  -2.689  -9.403  1.00  0.00     0.001 A 
ATOM     12  C   UNL     1      -5.087  -2.813  -8.784  1.00  0.00     0.047 A 
ATOM     13  C   UNL     1      -6.302  -3.444  -9.062  1.00  0.00     0.004 A 
BRANCH   4  14
ATOM     14  O   UNL     1      -6.082   1.306 -10.416  1.00  0.00    -0.373 OA
ATOM     15  H   UNL     1      -5.520   2.107 -10.506  1.00  0.00     0.212 HD
ENDBRANCH   4  14
ENDBRANCH   3   4
ENDBRANCH   1   3
BRANCH   1  16
ATOM     16  C   UNL     1      -8.907   1.810  -8.937  1.00  0.00     0.018 A 
ATOM     17  C   UNL     1      -9.454   1.979 -10.217  1.00  0.00     0.019 A 
ATOM     18  C   UNL     1      -9.618   1.086  -7.969  1.00  0.00     0.019 A 
ATOM     19  C   UNL     1     -10.696   1.415 -10.530  1.00  0.00     0.086 A 
ATOM     20  C   UNL     1     -10.859   0.519  -8.274  1.00  0.00     0.086 A 
ATOM     21  C   UNL     1     -11.395   0.684  -9.556  1.00  0.00     0.269 A 
BRANCH  21  22
ATOM     22  N   UNL     1     -12.698   0.093  -9.886  1.00  0.00     0.062 N 
ATOM     23  O   UNL     1     -12.722  -1.098 -10.224  1.00  0.00    -0.258 OA
ATOM     24  O   UNL     1     -13.697   0.823  -9.805  1.00  0.00    -0.258 OA
ENDBRANCH  21  22
ENDBRANCH   1  16
TORSDOF 5
ENDMDL
MODEL 19
REMARK VINA RESULT:    -5.074      3.642      7.642
REMARK INTER + INTRA:          -6.983
REMARK INTER:                  -6.251
REMARK INTRA:                  -0.732
REMARK UNBOUND:                -0.574
REMARK SMILES O=C(C[C@@]1(O)C(=O)Oc2ccccc21)c1ccc([N+](=O)[O-])cc1
REMARK SMILES IDX 2 1 1 2 3 3 4 4 14 5 6 6 13 7 9 8 8 9 7 10 12 11 10 12 11 13
REMARK SMILES IDX 5 14 15 16 16 17 23 18 17 19 22 20 18 21 19 22 20 23 21 24
REMARK H PARENT 5 15
ROOT
ATOM      1  C   UNL     1     -19.149   1.251 -20.137  1.00  0.00     0.166 C 
ATOM      2  O   UNL     1     -19.067   1.293 -18.911  1.00  0.00    -0.294 OA
ENDROOT
BRANCH   1   3
ATOM      3  C   UNL     1     -20.413   1.674 -20.861  1.00  0.00     0.133 C 
BRANCH   3   4
ATOM      4  C   UNL     1     -20.527   3.203 -20.921  1.00  0.00     0.198 C 
ATOM      5  C   UNL     1     -21.464   3.706 -19.883  1.00  0.00     0.038 A 
ATOM      6  C   UNL     1     -21.302   3.620 -22.203  1.00  0.00     0.348 C 
ATOM      7  C   UNL     1     -21.369   3.701 -18.500  1.00  0.00     0.011 A 
ATOM      8  C   UNL     1     -22.570   4.246 -20.514  1.00  0.00     0.137 A 
ATOM      9  O   UNL     1     -22.530   4.201 -21.894  1.00  0.00    -0.424 OA
ATOM     10  O   UNL     1     -20.926   3.432 -23.354  1.00  0.00    -0.248 OA
ATOM     11  C   UNL     1     -22.424   4.243 -17.761  1.00  0.00     0.001 A 
ATOM     12  C   UNL     1     -23.625   4.786 -19.804  1.00  0.00     0.047 A 
ATOM     13  C   UNL     1     -23.548   4.779 -18.410  1.00  0.00     0.004 A 
BRANCH   4  14
ATOM     14  O   UNL     1     -19.279   3.840 -20.721  1.00  0.00    -0.373 OA
ATOM     15  H   UNL     1     -19.012   3.635 -19.798  1.00  0.00     0.212 HD
ENDBRANCH   4  14
ENDBRANCH   3   4
ENDBRANCH   1   3
BRANCH   1  16
ATOM     16  C   UNL     1     -17.992   0.745 -20.927  1.00  0.00     0.018 A 
ATOM     17  C   UNL     1     -17.799   1.092 -22.271  1.00  0.00     0.019 A 
ATOM     18  C   UNL     1     -17.086  -0.121 -20.296  1.00  0.00     0.019 A 
ATOM     19  C   UNL     1     -16.700   0.589 -22.976  1.00  0.00     0.086 A 
ATOM     20  C   UNL     1     -15.985  -0.627 -20.994  1.00  0.00     0.086 A 
ATOM     21  C   UNL     1     -15.794  -0.269 -22.333  1.00  0.00     0.269 A 
BRANCH  21  22
ATOM     22  N   UNL     1     -14.641  -0.797 -23.074  1.00  0.00     0.062 N 
ATOM     23  O   UNL     1     -13.990  -1.713 -22.552  1.00  0.00    -0.258 OA
ATOM     24  O   UNL     1     -14.389  -0.294 -24.179  1.00  0.00    -0.258 OA
ENDBRANCH  21  22
ENDBRANCH   1  16
TORSDOF 5
ENDMDL
MODEL 20
REMARK VINA RESULT:    -5.070     12.797     14.911
REMARK INTER + INTRA:          -6.977
REMARK INTER:                  -5.817
REMARK INTRA:                  -1.160
REMARK UNBOUND:                -0.574
REMARK SMILES O=C(C[C@@]1(O)C(=O)Oc2ccccc21)c1ccc([N+](=O)[O-])cc1
REMARK SMILES IDX 2 1 1 2 3 3 4 4 14 5 6 6 13 7 9 8 8 9 7 10 12 11 10 12 11 13
REMARK SMILES IDX 5 14 15 16 16 17 23 18 17 19 22 20 18 21 19 22 20 23 21 24
REMARK H PARENT 5 15
ROOT
ATOM      1  C   UNL     1     -12.239  -2.010  -9.376  1.00  0.00     0.166 C 
ATOM      2  O   UNL     1     -11.740  -2.883 -10.083  1.00  0.00    -0.294 OA
ENDROOT
BRANCH   1   3
ATOM      3  C   UNL     1     -13.685  -2.089  -8.923  1.00  0.00     0.133 C 
BRANCH   3   4
ATOM      4  C   UNL     1     -14.640  -1.699 -10.060  1.00  0.00     0.198 C 
ATOM      5  C   UNL     1     -15.240  -0.362  -9.815  1.00  0.00     0.038 A 
ATOM      6  C   UNL     1     -15.919  -2.581  -9.993  1.00  0.00     0.348 C 
ATOM      7  C   UNL     1     -14.660   0.896  -9.781  1.00  0.00     0.011 A 
ATOM      8  C   UNL     1     -16.596  -0.522  -9.601  1.00  0.00     0.137 A 
ATOM      9  O   UNL     1     -17.046  -1.826  -9.677  1.00  0.00    -0.424 OA
ATOM     10  O   UNL     1     -15.955  -3.796 -10.149  1.00  0.00    -0.248 OA
ATOM     11  C   UNL     1     -15.479   1.996  -9.513  1.00  0.00     0.001 A 
ATOM     12  C   UNL     1     -17.425   0.550  -9.333  1.00  0.00     0.047 A 
ATOM     13  C   UNL     1     -16.854   1.824  -9.287  1.00  0.00     0.004 A 
BRANCH   4  14
ATOM     14  O   UNL     1     -13.986  -1.656 -11.315  1.00  0.00    -0.373 OA
ATOM     15  H   UNL     1     -14.162  -0.763 -11.684  1.00  0.00     0.212 HD
ENDBRANCH   4  14
ENDBRANCH   3   4
ENDBRANCH   1   3
BRANCH   1  16
ATOM     16  C   UNL     1     -11.415  -0.835  -8.979  1.00  0.00     0.018 A 
ATOM     17  C   UNL     1     -10.813  -0.740  -7.717  1.00  0.00     0.019 A 
ATOM     18  C   UNL     1     -11.262   0.211  -9.901  1.00  0.00     0.019 A 
ATOM     19  C   UNL     1     -10.051   0.387  -7.385  1.00  0.00     0.086 A 
ATOM     20  C   UNL     1     -10.502   1.339  -9.578  1.00  0.00     0.086 A 
ATOM     21  C   UNL     1      -9.896   1.423  -8.319  1.00  0.00     0.269 A 
BRANCH  21  22
ATOM     22  N   UNL     1      -9.097   2.604  -7.969  1.00  0.00     0.062 N 
ATOM     23  O   UNL     1      -9.666   3.529  -7.372  1.00  0.00    -0.258 OA
ATOM     24  O   UNL     1      -7.900   2.605  -8.292  1.00  0.00    -0.258 OA
ENDBRANCH  21  22
ENDBRANCH   1  16
TORSDOF 5
ENDMDL
