MODEL 1
REMARK VINA RESULT:    -5.910      0.000      0.000
REMARK INTER + INTRA:          -8.341
REMARK INTER:                  -7.811
REMARK INTRA:                  -0.530
REMARK UNBOUND:                -0.530
REMARK SMILES O=C(/C=C/c1ccccc1)Oc1ccccc1C(=O)O
REMARK SMILES IDX 17 1 16 2 15 3 14 4 13 5 12 6 18 7 19 8 20 9 11 11 2 12 1 13
REMARK SMILES IDX 3 14 4 15 5 16 6 17 10 18 7 19 9 20 8 21
REMARK H PARENT 20 10
ROOT
ATOM      1  C   UNL     1     -22.174   7.567 -18.830  1.00  0.00     0.102 A 
ATOM      2  C   UNL     1     -23.193   7.982 -17.960  1.00  0.00     0.019 A 
ATOM      3  C   UNL     1     -23.597   7.166 -16.897  1.00  0.00     0.001 A 
ATOM      4  C   UNL     1     -22.992   5.927 -16.696  1.00  0.00     0.004 A 
ATOM      5  C   UNL     1     -21.978   5.499 -17.549  1.00  0.00     0.048 A 
ATOM      6  C   UNL     1     -21.564   6.326 -18.600  1.00  0.00     0.145 A 
ENDROOT
BRANCH   1   7
ATOM      7  C   UNL     1     -21.761   8.413 -19.980  1.00  0.00     0.339 C 
ATOM      8  O   UNL     1     -21.750   8.099 -21.156  1.00  0.00    -0.246 OA
BRANCH   7   9
ATOM      9  O   UNL     1     -21.374   9.647 -19.600  1.00  0.00    -0.478 OA
ATOM     10  H   UNL     1     -21.610   9.682 -18.649  1.00  0.00     0.297 HD
ENDBRANCH   7   9
ENDBRANCH   1   7
BRANCH   6  11
ATOM     11  O   UNL     1     -20.561   5.829 -19.437  1.00  0.00    -0.422 OA
BRANCH  11  12
ATOM     12  C   UNL     1     -20.990   4.747 -20.187  1.00  0.00     0.336 C 
ATOM     13  O   UNL     1     -22.058   4.617 -20.764  1.00  0.00    -0.246 OA
BRANCH  12  14
ATOM     14  C   UNL     1     -19.895   3.751 -20.187  1.00  0.00     0.094 C 
ATOM     15  C   UNL     1     -19.801   2.860 -21.185  1.00  0.00     0.015 C 
BRANCH  15  16
ATOM     16  C   UNL     1     -18.750   1.839 -21.271  1.00  0.00    -0.025 A 
ATOM     17  C   UNL     1     -18.468   0.964 -20.213  1.00  0.00     0.008 A 
ATOM     18  C   UNL     1     -18.039   1.700 -22.470  1.00  0.00     0.008 A 
ATOM     19  C   UNL     1     -17.475  -0.011 -20.344  1.00  0.00     0.001 A 
ATOM     20  C   UNL     1     -17.047   0.725 -22.601  1.00  0.00     0.001 A 
ATOM     21  C   UNL     1     -16.763  -0.129 -21.537  1.00  0.00     0.000 A 
ENDBRANCH  15  16
ENDBRANCH  12  14
ENDBRANCH  11  12
ENDBRANCH   6  11
TORSDOF 6
ENDMDL
MODEL 2
REMARK VINA RESULT:    -5.731      1.443      2.616
REMARK INTER + INTRA:          -8.103
REMARK INTER:                  -7.383
REMARK INTRA:                  -0.720
REMARK UNBOUND:                -0.530
REMARK SMILES O=C(/C=C/c1ccccc1)Oc1ccccc1C(=O)O
REMARK SMILES IDX 17 1 16 2 15 3 14 4 13 5 12 6 18 7 19 8 20 9 11 11 2 12 1 13
REMARK SMILES IDX 3 14 4 15 5 16 6 17 10 18 7 19 9 20 8 21
REMARK H PARENT 20 10
ROOT
ATOM      1  C   UNL     1     -22.082   7.189 -18.654  1.00  0.00     0.102 A 
ATOM      2  C   UNL     1     -22.847   8.355 -18.500  1.00  0.00     0.019 A 
ATOM      3  C   UNL     1     -23.275   9.076 -19.620  1.00  0.00     0.001 A 
ATOM      4  C   UNL     1     -22.940   8.645 -20.903  1.00  0.00     0.004 A 
ATOM      5  C   UNL     1     -22.182   7.489 -21.073  1.00  0.00     0.048 A 
ATOM      6  C   UNL     1     -21.771   6.760 -19.951  1.00  0.00     0.145 A 
ENDROOT
BRANCH   1   7
ATOM      7  C   UNL     1     -21.597   6.435 -17.469  1.00  0.00     0.339 C 
ATOM      8  O   UNL     1     -22.271   5.821 -16.662  1.00  0.00    -0.246 OA
BRANCH   7   9
ATOM      9  O   UNL     1     -20.256   6.480 -17.341  1.00  0.00    -0.478 OA
ATOM     10  H   UNL     1     -19.978   7.120 -18.030  1.00  0.00     0.297 HD
ENDBRANCH   7   9
ENDBRANCH   1   7
BRANCH   6  11
ATOM     11  O   UNL     1     -20.991   5.624 -20.187  1.00  0.00    -0.422 OA
BRANCH  11  12
ATOM     12  C   UNL     1     -21.751   4.540 -20.593  1.00  0.00     0.336 C 
ATOM     13  O   UNL     1     -22.956   4.387 -20.469  1.00  0.00    -0.246 OA
BRANCH  12  14
ATOM     14  C   UNL     1     -20.832   3.578 -21.241  1.00  0.00     0.094 C 
ATOM     15  C   UNL     1     -19.831   3.031 -20.537  1.00  0.00     0.015 C 
BRANCH  15  16
ATOM     16  C   UNL     1     -18.874   2.066 -21.092  1.00  0.00    -0.025 A 
ATOM     17  C   UNL     1     -18.445   2.121 -22.426  1.00  0.00     0.008 A 
ATOM     18  C   UNL     1     -18.330   1.089 -20.248  1.00  0.00     0.008 A 
ATOM     19  C   UNL     1     -17.513   1.200 -22.911  1.00  0.00     0.001 A 
ATOM     20  C   UNL     1     -17.398   0.168 -20.733  1.00  0.00     0.001 A 
ATOM     21  C   UNL     1     -16.991   0.222 -22.065  1.00  0.00     0.000 A 
ENDBRANCH  15  16
ENDBRANCH  12  14
ENDBRANCH  11  12
ENDBRANCH   6  11
TORSDOF 6
ENDMDL
MODEL 3
REMARK VINA RESULT:    -5.659      1.790      2.833
REMARK INTER + INTRA:          -8.008
REMARK INTER:                  -7.201
REMARK INTRA:                  -0.808
REMARK UNBOUND:                -0.530
REMARK SMILES O=C(/C=C/c1ccccc1)Oc1ccccc1C(=O)O
REMARK SMILES IDX 17 1 16 2 15 3 14 4 13 5 12 6 18 7 19 8 20 9 11 11 2 12 1 13
REMARK SMILES IDX 3 14 4 15 5 16 6 17 10 18 7 19 9 20 8 21
REMARK H PARENT 20 10
ROOT
ATOM      1  C   UNL     1     -22.024   6.131 -18.844  1.00  0.00     0.102 A 
ATOM      2  C   UNL     1     -23.162   6.871 -19.201  1.00  0.00     0.019 A 
ATOM      3  C   UNL     1     -23.601   6.901 -20.529  1.00  0.00     0.001 A 
ATOM      4  C   UNL     1     -22.908   6.200 -21.514  1.00  0.00     0.004 A 
ATOM      5  C   UNL     1     -21.777   5.460 -21.177  1.00  0.00     0.048 A 
ATOM      6  C   UNL     1     -21.352   5.416 -19.845  1.00  0.00     0.145 A 
ENDROOT
BRANCH   1   7
ATOM      7  C   UNL     1     -21.533   6.118 -17.442  1.00  0.00     0.339 C 
ATOM      8  O   UNL     1     -22.158   5.797 -16.448  1.00  0.00    -0.246 OA
BRANCH   7   9
ATOM      9  O   UNL     1     -20.249   6.516 -17.341  1.00  0.00    -0.478 OA
ATOM     10  H   UNL     1     -19.743   5.762 -17.710  1.00  0.00     0.297 HD
ENDBRANCH   7   9
ENDBRANCH   1   7
BRANCH   6  11
ATOM     11  O   UNL     1     -20.196   4.677 -19.574  1.00  0.00    -0.422 OA
BRANCH  11  12
ATOM     12  C   UNL     1     -20.407   3.313 -19.683  1.00  0.00     0.336 C 
ATOM     13  O   UNL     1     -21.355   2.670 -19.259  1.00  0.00    -0.246 OA
BRANCH  12  14
ATOM     14  C   UNL     1     -19.266   2.750 -20.439  1.00  0.00     0.094 C 
ATOM     15  C   UNL     1     -18.969   1.447 -20.330  1.00  0.00     0.015 C 
BRANCH  15  16
ATOM     16  C   UNL     1     -17.861   0.801 -21.043  1.00  0.00    -0.025 A 
ATOM     17  C   UNL     1     -17.532   1.124 -22.367  1.00  0.00     0.008 A 
ATOM     18  C   UNL     1     -17.070  -0.134 -20.361  1.00  0.00     0.008 A 
ATOM     19  C   UNL     1     -16.452   0.504 -23.002  1.00  0.00     0.001 A 
ATOM     20  C   UNL     1     -15.991  -0.753 -20.996  1.00  0.00     0.001 A 
ATOM     21  C   UNL     1     -15.684  -0.436 -22.318  1.00  0.00     0.000 A 
ENDBRANCH  15  16
ENDBRANCH  12  14
ENDBRANCH  11  12
ENDBRANCH   6  11
TORSDOF 6
ENDMDL
MODEL 4
REMARK VINA RESULT:    -5.524      2.466      3.608
REMARK INTER + INTRA:          -7.831
REMARK INTER:                  -7.270
REMARK INTRA:                  -0.560
REMARK UNBOUND:                -0.530
REMARK SMILES O=C(/C=C/c1ccccc1)Oc1ccccc1C(=O)O
REMARK SMILES IDX 17 1 16 2 15 3 14 4 13 5 12 6 18 7 19 8 20 9 11 11 2 12 1 13
REMARK SMILES IDX 3 14 4 15 5 16 6 17 10 18 7 19 9 20 8 21
REMARK H PARENT 20 10
ROOT
ATOM      1  C   UNL     1     -20.998   5.069 -19.855  1.00  0.00     0.102 A 
ATOM      2  C   UNL     1     -21.340   6.425 -19.747  1.00  0.00     0.019 A 
ATOM      3  C   UNL     1     -22.225   7.010 -20.660  1.00  0.00     0.001 A 
ATOM      4  C   UNL     1     -22.772   6.250 -21.692  1.00  0.00     0.004 A 
ATOM      5  C   UNL     1     -22.444   4.902 -21.813  1.00  0.00     0.048 A 
ATOM      6  C   UNL     1     -21.574   4.315 -20.888  1.00  0.00     0.145 A 
ENDROOT
BRANCH   1   7
ATOM      7  C   UNL     1     -20.035   4.448 -18.909  1.00  0.00     0.339 C 
ATOM      8  O   UNL     1     -18.847   4.693 -18.805  1.00  0.00    -0.246 OA
BRANCH   7   9
ATOM      9  O   UNL     1     -20.613   3.527 -18.113  1.00  0.00    -0.478 OA
ATOM     10  H   UNL     1     -20.279   2.675 -18.462  1.00  0.00     0.297 HD
ENDBRANCH   7   9
ENDBRANCH   1   7
BRANCH   6  11
ATOM     11  O   UNL     1     -21.263   2.965 -21.079  1.00  0.00    -0.422 OA
BRANCH  11  12
ATOM     12  C   UNL     1     -20.396   2.772 -22.141  1.00  0.00     0.336 C 
ATOM     13  O   UNL     1     -20.506   3.199 -23.280  1.00  0.00    -0.246 OA
BRANCH  12  14
ATOM     14  C   UNL     1     -19.270   1.950 -21.644  1.00  0.00     0.094 C 
ATOM     15  C   UNL     1     -18.365   1.463 -22.507  1.00  0.00     0.015 C 
BRANCH  15  16
ATOM     16  C   UNL     1     -17.216   0.644 -22.107  1.00  0.00    -0.025 A 
ATOM     17  C   UNL     1     -16.176   0.329 -22.993  1.00  0.00     0.008 A 
ATOM     18  C   UNL     1     -17.127   0.204 -20.780  1.00  0.00     0.008 A 
ATOM     19  C   UNL     1     -15.085  -0.433 -22.566  1.00  0.00     0.001 A 
ATOM     20  C   UNL     1     -16.036  -0.558 -20.353  1.00  0.00     0.001 A 
ATOM     21  C   UNL     1     -15.016  -0.879 -21.248  1.00  0.00     0.000 A 
ENDBRANCH  15  16
ENDBRANCH  12  14
ENDBRANCH  11  12
ENDBRANCH   6  11
TORSDOF 6
ENDMDL
MODEL 5
REMARK VINA RESULT:    -5.458     13.601     15.724
REMARK INTER + INTRA:          -7.743
REMARK INTER:                  -6.869
REMARK INTRA:                  -0.874
REMARK UNBOUND:                -0.530
REMARK SMILES O=C(/C=C/c1ccccc1)Oc1ccccc1C(=O)O
REMARK SMILES IDX 17 1 16 2 15 3 14 4 13 5 12 6 18 7 19 8 20 9 11 11 2 12 1 13
REMARK SMILES IDX 3 14 4 15 5 16 6 17 10 18 7 19 9 20 8 21
REMARK H PARENT 20 10
ROOT
ATOM      1  C   UNL     1      -8.459   1.842  -8.517  1.00  0.00     0.102 A 
ATOM      2  C   UNL     1      -7.285   1.194  -8.104  1.00  0.00     0.019 A 
ATOM      3  C   UNL     1      -7.338  -0.096  -7.564  1.00  0.00     0.001 A 
ATOM      4  C   UNL     1      -8.562  -0.749  -7.427  1.00  0.00     0.004 A 
ATOM      5  C   UNL     1      -9.736  -0.121  -7.833  1.00  0.00     0.048 A 
ATOM      6  C   UNL     1      -9.678   1.161  -8.390  1.00  0.00     0.145 A 
ENDROOT
BRANCH   1   7
ATOM      7  C   UNL     1      -8.415   3.224  -9.062  1.00  0.00     0.339 C 
ATOM      8  O   UNL     1      -7.797   4.171  -8.612  1.00  0.00    -0.246 OA
BRANCH   7   9
ATOM      9  O   UNL     1      -9.162   3.365 -10.175  1.00  0.00    -0.478 OA
ATOM     10  H   UNL     1      -9.080   4.317 -10.391  1.00  0.00     0.297 HD
ENDBRANCH   7   9
ENDBRANCH   1   7
BRANCH   6  11
ATOM     11  O   UNL     1     -10.893   1.749  -8.754  1.00  0.00    -0.422 OA
BRANCH  11  12
ATOM     12  C   UNL     1     -11.438   1.167  -9.887  1.00  0.00     0.336 C 
ATOM     13  O   UNL     1     -10.919   1.045 -10.985  1.00  0.00    -0.246 OA
BRANCH  12  14
ATOM     14  C   UNL     1     -12.791   0.687  -9.525  1.00  0.00     0.094 C 
ATOM     15  C   UNL     1     -13.857   1.474  -9.729  1.00  0.00     0.015 C 
BRANCH  15  16
ATOM     16  C   UNL     1     -15.234   1.082  -9.406  1.00  0.00    -0.025 A 
ATOM     17  C   UNL     1     -16.342   1.846  -9.800  1.00  0.00     0.008 A 
ATOM     18  C   UNL     1     -15.453  -0.123  -8.725  1.00  0.00     0.008 A 
ATOM     19  C   UNL     1     -17.639   1.425  -9.495  1.00  0.00     0.001 A 
ATOM     20  C   UNL     1     -16.750  -0.543  -8.420  1.00  0.00     0.001 A 
ATOM     21  C   UNL     1     -17.843   0.232  -8.803  1.00  0.00     0.000 A 
ENDBRANCH  15  16
ENDBRANCH  12  14
ENDBRANCH  11  12
ENDBRANCH   6  11
TORSDOF 6
ENDMDL
MODEL 6
REMARK VINA RESULT:    -5.446      2.247      3.168
REMARK INTER + INTRA:          -7.727
REMARK INTER:                  -6.925
REMARK INTRA:                  -0.802
REMARK UNBOUND:                -0.530
REMARK SMILES O=C(/C=C/c1ccccc1)Oc1ccccc1C(=O)O
REMARK SMILES IDX 17 1 16 2 15 3 14 4 13 5 12 6 18 7 19 8 20 9 11 11 2 12 1 13
REMARK SMILES IDX 3 14 4 15 5 16 6 17 10 18 7 19 9 20 8 21
REMARK H PARENT 20 10
ROOT
ATOM      1  C   UNL     1     -20.839   4.776 -18.514  1.00  0.00     0.102 A 
ATOM      2  C   UNL     1     -21.170   5.835 -17.655  1.00  0.00     0.019 A 
ATOM      3  C   UNL     1     -22.451   5.926 -17.100  1.00  0.00     0.001 A 
ATOM      4  C   UNL     1     -23.416   4.965 -17.402  1.00  0.00     0.004 A 
ATOM      5  C   UNL     1     -23.104   3.908 -18.252  1.00  0.00     0.048 A 
ATOM      6  C   UNL     1     -21.816   3.809 -18.790  1.00  0.00     0.145 A 
ENDROOT
BRANCH   1   7
ATOM      7  C   UNL     1     -19.490   4.689 -19.132  1.00  0.00     0.339 C 
ATOM      8  O   UNL     1     -18.416   4.735 -18.560  1.00  0.00    -0.246 OA
BRANCH   7   9
ATOM      9  O   UNL     1     -19.543   4.543 -20.470  1.00  0.00    -0.478 OA
ATOM     10  H   UNL     1     -19.200   3.637 -20.619  1.00  0.00     0.297 HD
ENDBRANCH   7   9
ENDBRANCH   1   7
BRANCH   6  11
ATOM     11  O   UNL     1     -21.572   2.739 -19.656  1.00  0.00    -0.422 OA
BRANCH  11  12
ATOM     12  C   UNL     1     -20.953   1.678 -19.019  1.00  0.00     0.336 C 
ATOM     13  O   UNL     1     -21.131   1.289 -17.875  1.00  0.00    -0.246 OA
BRANCH  12  14
ATOM     14  C   UNL     1     -20.024   1.062 -19.993  1.00  0.00     0.094 C 
ATOM     15  C   UNL     1     -18.701   1.229 -19.853  1.00  0.00     0.015 C 
BRANCH  15  16
ATOM     16  C   UNL     1     -17.705   0.654 -20.766  1.00  0.00    -0.025 A 
ATOM     17  C   UNL     1     -17.612   1.040 -22.110  1.00  0.00     0.008 A 
ATOM     18  C   UNL     1     -16.782  -0.273 -20.264  1.00  0.00     0.008 A 
ATOM     19  C   UNL     1     -16.632   0.488 -22.941  1.00  0.00     0.001 A 
ATOM     20  C   UNL     1     -15.804  -0.825 -21.095  1.00  0.00     0.001 A 
ATOM     21  C   UNL     1     -15.731  -0.446 -22.434  1.00  0.00     0.000 A 
ENDBRANCH  15  16
ENDBRANCH  12  14
ENDBRANCH  11  12
ENDBRANCH   6  11
TORSDOF 6
ENDMDL
MODEL 7
REMARK VINA RESULT:    -5.222      9.766     11.331
REMARK INTER + INTRA:          -7.431
REMARK INTER:                  -6.557
REMARK INTRA:                  -0.875
REMARK UNBOUND:                -0.530
REMARK SMILES O=C(/C=C/c1ccccc1)Oc1ccccc1C(=O)O
REMARK SMILES IDX 17 1 16 2 15 3 14 4 13 5 12 6 18 7 19 8 20 9 11 11 2 12 1 13
REMARK SMILES IDX 3 14 4 15 5 16 6 17 10 18 7 19 9 20 8 21
REMARK H PARENT 20 10
ROOT
ATOM      1  C   UNL     1     -14.962   0.886  -9.311  1.00  0.00     0.102 A 
ATOM      2  C   UNL     1     -14.240  -0.302  -9.122  1.00  0.00     0.019 A 
ATOM      3  C   UNL     1     -14.891  -1.472  -8.715  1.00  0.00     0.001 A 
ATOM      4  C   UNL     1     -16.266  -1.467  -8.486  1.00  0.00     0.004 A 
ATOM      5  C   UNL     1     -16.998  -0.296  -8.669  1.00  0.00     0.048 A 
ATOM      6  C   UNL     1     -16.347   0.867  -9.095  1.00  0.00     0.145 A 
ENDROOT
BRANCH   1   7
ATOM      7  C   UNL     1     -14.274   2.140  -9.713  1.00  0.00     0.339 C 
ATOM      8  O   UNL     1     -13.436   2.270 -10.586  1.00  0.00    -0.246 OA
BRANCH   7   9
ATOM      9  O   UNL     1     -14.674   3.204  -8.989  1.00  0.00    -0.478 OA
ATOM     10  H   UNL     1     -15.614   3.010  -8.790  1.00  0.00     0.297 HD
ENDBRANCH   7   9
ENDBRANCH   1   7
BRANCH   6  11
ATOM     11  O   UNL     1     -17.132   2.016  -9.235  1.00  0.00    -0.422 OA
BRANCH  11  12
ATOM     12  C   UNL     1     -18.237   1.801 -10.042  1.00  0.00     0.336 C 
ATOM     13  O   UNL     1     -19.414   1.931  -9.744  1.00  0.00    -0.246 OA
BRANCH  12  14
ATOM     14  C   UNL     1     -17.735   1.394 -11.374  1.00  0.00     0.094 C 
ATOM     15  C   UNL     1     -18.324   0.384 -12.031  1.00  0.00     0.015 C 
BRANCH  15  16
ATOM     16  C   UNL     1     -17.899  -0.086 -13.354  1.00  0.00    -0.025 A 
ATOM     17  C   UNL     1     -18.813  -0.528 -14.321  1.00  0.00     0.008 A 
ATOM     18  C   UNL     1     -16.537  -0.044 -13.683  1.00  0.00     0.008 A 
ATOM     19  C   UNL     1     -18.370  -0.944 -15.580  1.00  0.00     0.001 A 
ATOM     20  C   UNL     1     -16.095  -0.459 -14.941  1.00  0.00     0.001 A 
ATOM     21  C   UNL     1     -17.011  -0.912 -15.889  1.00  0.00     0.000 A 
ENDBRANCH  15  16
ENDBRANCH  12  14
ENDBRANCH  11  12
ENDBRANCH   6  11
TORSDOF 6
ENDMDL
MODEL 8
REMARK VINA RESULT:    -5.211      5.031      8.316
REMARK INTER + INTRA:          -7.417
REMARK INTER:                  -6.598
REMARK INTRA:                  -0.819
REMARK UNBOUND:                -0.530
REMARK SMILES O=C(/C=C/c1ccccc1)Oc1ccccc1C(=O)O
REMARK SMILES IDX 17 1 16 2 15 3 14 4 13 5 12 6 18 7 19 8 20 9 11 11 2 12 1 13
REMARK SMILES IDX 3 14 4 15 5 16 6 17 10 18 7 19 9 20 8 21
REMARK H PARENT 20 10
ROOT
ATOM      1  C   UNL     1     -16.246  -0.678 -18.513  1.00  0.00     0.102 A 
ATOM      2  C   UNL     1     -15.519  -0.289 -17.377  1.00  0.00     0.019 A 
ATOM      3  C   UNL     1     -14.132  -0.116 -17.447  1.00  0.00     0.001 A 
ATOM      4  C   UNL     1     -13.458  -0.334 -18.647  1.00  0.00     0.004 A 
ATOM      5  C   UNL     1     -14.164  -0.720 -19.783  1.00  0.00     0.048 A 
ATOM      6  C   UNL     1     -15.553  -0.874 -19.715  1.00  0.00     0.145 A 
ENDROOT
BRANCH   1   7
ATOM      7  C   UNL     1     -17.715  -0.895 -18.439  1.00  0.00     0.339 C 
ATOM      8  O   UNL     1     -18.555  -0.105 -18.049  1.00  0.00    -0.246 OA
BRANCH   7   9
ATOM      9  O   UNL     1     -18.079  -2.119 -18.869  1.00  0.00    -0.478 OA
ATOM     10  H   UNL     1     -17.704  -2.168 -19.774  1.00  0.00     0.297 HD
ENDBRANCH   7   9
ENDBRANCH   1   7
BRANCH   6  11
ATOM     11  O   UNL     1     -16.202  -1.288 -20.882  1.00  0.00    -0.422 OA
BRANCH  11  12
ATOM     12  C   UNL     1     -16.168  -0.321 -21.873  1.00  0.00     0.336 C 
ATOM     13  O   UNL     1     -15.284  -0.125 -22.693  1.00  0.00    -0.246 OA
BRANCH  12  14
ATOM     14  C   UNL     1     -17.429   0.447 -21.780  1.00  0.00     0.094 C 
ATOM     15  C   UNL     1     -17.720   1.371 -22.709  1.00  0.00     0.015 C 
BRANCH  15  16
ATOM     16  C   UNL     1     -18.946   2.178 -22.701  1.00  0.00    -0.025 A 
ATOM     17  C   UNL     1     -19.599   2.559 -23.882  1.00  0.00     0.008 A 
ATOM     18  C   UNL     1     -19.514   2.536 -21.471  1.00  0.00     0.008 A 
ATOM     19  C   UNL     1     -20.780   3.305 -23.832  1.00  0.00     0.001 A 
ATOM     20  C   UNL     1     -20.694   3.282 -21.421  1.00  0.00     0.001 A 
ATOM     21  C   UNL     1     -21.325   3.669 -22.602  1.00  0.00     0.000 A 
ENDBRANCH  15  16
ENDBRANCH  12  14
ENDBRANCH  11  12
ENDBRANCH   6  11
TORSDOF 6
ENDMDL
MODEL 9
REMARK VINA RESULT:    -5.193      6.162      9.288
REMARK INTER + INTRA:          -7.393
REMARK INTER:                  -6.639
REMARK INTRA:                  -0.754
REMARK UNBOUND:                -0.530
REMARK SMILES O=C(/C=C/c1ccccc1)Oc1ccccc1C(=O)O
REMARK SMILES IDX 17 1 16 2 15 3 14 4 13 5 12 6 18 7 19 8 20 9 11 11 2 12 1 13
REMARK SMILES IDX 3 14 4 15 5 16 6 17 10 18 7 19 9 20 8 21
REMARK H PARENT 20 10
ROOT
ATOM      1  C   UNL     1     -13.691  -1.458 -16.915  1.00  0.00     0.102 A 
ATOM      2  C   UNL     1     -12.671  -2.283 -16.417  1.00  0.00     0.019 A 
ATOM      3  C   UNL     1     -12.852  -2.998 -15.227  1.00  0.00     0.001 A 
ATOM      4  C   UNL     1     -14.049  -2.892 -14.520  1.00  0.00     0.004 A 
ATOM      5  C   UNL     1     -15.072  -2.078 -15.001  1.00  0.00     0.048 A 
ATOM      6  C   UNL     1     -14.895  -1.380 -16.200  1.00  0.00     0.145 A 
ENDROOT
BRANCH   1   7
ATOM      7  C   UNL     1     -13.495  -0.672 -18.160  1.00  0.00     0.339 C 
ATOM      8  O   UNL     1     -13.386  -1.106 -19.293  1.00  0.00    -0.246 OA
BRANCH   7   9
ATOM      9  O   UNL     1     -13.445   0.655 -17.931  1.00  0.00    -0.478 OA
ATOM     10  H   UNL     1     -12.615   0.935 -18.371  1.00  0.00     0.297 HD
ENDBRANCH   7   9
ENDBRANCH   1   7
BRANCH   6  11
ATOM     11  O   UNL     1     -15.948  -0.560 -16.616  1.00  0.00    -0.422 OA
BRANCH  11  12
ATOM     12  C   UNL     1     -16.769  -1.187 -17.539  1.00  0.00     0.336 C 
ATOM     13  O   UNL     1     -17.065  -2.370 -17.589  1.00  0.00    -0.246 OA
BRANCH  12  14
ATOM     14  C   UNL     1     -17.259  -0.146 -18.469  1.00  0.00     0.094 C 
ATOM     15  C   UNL     1     -17.346  -0.409 -19.782  1.00  0.00     0.015 C 
BRANCH  15  16
ATOM     16  C   UNL     1     -17.823   0.558 -20.777  1.00  0.00    -0.025 A 
ATOM     17  C   UNL     1     -18.825   1.496 -20.491  1.00  0.00     0.008 A 
ATOM     18  C   UNL     1     -17.221   0.580 -22.043  1.00  0.00     0.008 A 
ATOM     19  C   UNL     1     -19.234   2.417 -21.459  1.00  0.00     0.001 A 
ATOM     20  C   UNL     1     -17.629   1.501 -23.010  1.00  0.00     0.001 A 
ATOM     21  C   UNL     1     -18.638   2.418 -22.719  1.00  0.00     0.000 A 
ENDBRANCH  15  16
ENDBRANCH  12  14
ENDBRANCH  11  12
ENDBRANCH   6  11
TORSDOF 6
ENDMDL
MODEL 10
REMARK VINA RESULT:    -5.189      2.438      3.476
REMARK INTER + INTRA:          -7.387
REMARK INTER:                  -6.779
REMARK INTRA:                  -0.608
REMARK UNBOUND:                -0.530
REMARK SMILES O=C(/C=C/c1ccccc1)Oc1ccccc1C(=O)O
REMARK SMILES IDX 17 1 16 2 15 3 14 4 13 5 12 6 18 7 19 8 20 9 11 11 2 12 1 13
REMARK SMILES IDX 3 14 4 15 5 16 6 17 10 18 7 19 9 20 8 21
REMARK H PARENT 20 10
ROOT
ATOM      1  C   UNL     1     -21.133   4.126 -18.728  1.00  0.00     0.102 A 
ATOM      2  C   UNL     1     -22.011   3.750 -17.699  1.00  0.00     0.019 A 
ATOM      3  C   UNL     1     -23.044   2.838 -17.945  1.00  0.00     0.001 A 
ATOM      4  C   UNL     1     -23.214   2.297 -19.218  1.00  0.00     0.004 A 
ATOM      5  C   UNL     1     -22.351   2.658 -20.249  1.00  0.00     0.048 A 
ATOM      6  C   UNL     1     -21.308   3.556 -19.996  1.00  0.00     0.145 A 
ENDROOT
BRANCH   1   7
ATOM      7  C   UNL     1     -20.054   5.117 -18.483  1.00  0.00     0.339 C 
ATOM      8  O   UNL     1     -20.180   6.248 -18.049  1.00  0.00    -0.246 OA
BRANCH   7   9
ATOM      9  O   UNL     1     -18.834   4.641 -18.798  1.00  0.00    -0.478 OA
ATOM     10  H   UNL     1     -18.460   5.329 -19.388  1.00  0.00     0.297 HD
ENDBRANCH   7   9
ENDBRANCH   1   7
BRANCH   6  11
ATOM     11  O   UNL     1     -20.492   3.899 -21.079  1.00  0.00    -0.422 OA
BRANCH  11  12
ATOM     12  C   UNL     1     -20.330   2.849 -21.967  1.00  0.00     0.336 C 
ATOM     13  O   UNL     1     -20.995   2.605 -22.961  1.00  0.00    -0.246 OA
BRANCH  12  14
ATOM     14  C   UNL     1     -19.166   2.060 -21.505  1.00  0.00     0.094 C 
ATOM     15  C   UNL     1     -18.397   1.418 -22.397  1.00  0.00     0.015 C 
BRANCH  15  16
ATOM     16  C   UNL     1     -17.223   0.615 -22.034  1.00  0.00    -0.025 A 
ATOM     17  C   UNL     1     -16.176   0.371 -22.934  1.00  0.00     0.008 A 
ATOM     18  C   UNL     1     -17.119   0.120 -20.728  1.00  0.00     0.008 A 
ATOM     19  C   UNL     1     -15.062  -0.377 -22.541  1.00  0.00     0.001 A 
ATOM     20  C   UNL     1     -16.006  -0.628 -20.336  1.00  0.00     0.001 A 
ATOM     21  C   UNL     1     -14.979  -0.878 -21.243  1.00  0.00     0.000 A 
ENDBRANCH  15  16
ENDBRANCH  12  14
ENDBRANCH  11  12
ENDBRANCH   6  11
TORSDOF 6
ENDMDL
MODEL 11
REMARK VINA RESULT:    -5.187      2.221      3.640
REMARK INTER + INTRA:          -7.385
REMARK INTER:                  -6.635
REMARK INTRA:                  -0.750
REMARK UNBOUND:                -0.530
REMARK SMILES O=C(/C=C/c1ccccc1)Oc1ccccc1C(=O)O
REMARK SMILES IDX 17 1 16 2 15 3 14 4 13 5 12 6 18 7 19 8 20 9 11 11 2 12 1 13
REMARK SMILES IDX 3 14 4 15 5 16 6 17 10 18 7 19 9 20 8 21
REMARK H PARENT 20 10
ROOT
ATOM      1  C   UNL     1     -21.975   3.872 -17.682  1.00  0.00     0.102 A 
ATOM      2  C   UNL     1     -22.629   4.930 -17.033  1.00  0.00     0.019 A 
ATOM      3  C   UNL     1     -22.179   6.246 -17.191  1.00  0.00     0.001 A 
ATOM      4  C   UNL     1     -21.071   6.518 -17.991  1.00  0.00     0.004 A 
ATOM      5  C   UNL     1     -20.411   5.479 -18.643  1.00  0.00     0.048 A 
ATOM      6  C   UNL     1     -20.875   4.166 -18.498  1.00  0.00     0.145 A 
ENDROOT
BRANCH   1   7
ATOM      7  C   UNL     1     -22.427   2.469 -17.495  1.00  0.00     0.339 C 
ATOM      8  O   UNL     1     -23.573   2.058 -17.508  1.00  0.00    -0.246 OA
BRANCH   7   9
ATOM      9  O   UNL     1     -21.401   1.618 -17.296  1.00  0.00    -0.478 OA
ATOM     10  H   UNL     1     -20.607   2.181 -17.407  1.00  0.00     0.297 HD
ENDBRANCH   7   9
ENDBRANCH   1   7
BRANCH   6  11
ATOM     11  O   UNL     1     -20.154   3.165 -19.156  1.00  0.00    -0.422 OA
BRANCH  11  12
ATOM     12  C   UNL     1     -20.419   3.135 -20.515  1.00  0.00     0.336 C 
ATOM     13  O   UNL     1     -21.418   3.541 -21.089  1.00  0.00    -0.246 OA
BRANCH  12  14
ATOM     14  C   UNL     1     -19.244   2.526 -21.178  1.00  0.00     0.094 C 
ATOM     15  C   UNL     1     -18.730   1.380 -20.707  1.00  0.00     0.015 C 
BRANCH  15  16
ATOM     16  C   UNL     1     -17.571   0.702 -21.300  1.00  0.00    -0.025 A 
ATOM     17  C   UNL     1     -17.159   0.938 -22.619  1.00  0.00     0.008 A 
ATOM     18  C   UNL     1     -16.817  -0.172 -20.504  1.00  0.00     0.008 A 
ATOM     19  C   UNL     1     -16.034   0.291 -23.139  1.00  0.00     0.001 A 
ATOM     20  C   UNL     1     -15.693  -0.817 -21.024  1.00  0.00     0.001 A 
ATOM     21  C   UNL     1     -15.303  -0.588 -22.342  1.00  0.00     0.000 A 
ENDBRANCH  15  16
ENDBRANCH  12  14
ENDBRANCH  11  12
ENDBRANCH   6  11
TORSDOF 6
ENDMDL
MODEL 12
REMARK VINA RESULT:    -5.152      2.158      3.106
REMARK INTER + INTRA:          -7.338
REMARK INTER:                  -6.630
REMARK INTRA:                  -0.708
REMARK UNBOUND:                -0.530
REMARK SMILES O=C(/C=C/c1ccccc1)Oc1ccccc1C(=O)O
REMARK SMILES IDX 17 1 16 2 15 3 14 4 13 5 12 6 18 7 19 8 20 9 11 11 2 12 1 13
REMARK SMILES IDX 3 14 4 15 5 16 6 17 10 18 7 19 9 20 8 21
REMARK H PARENT 20 10
ROOT
ATOM      1  C   UNL     1     -21.812   5.085 -20.437  1.00  0.00     0.102 A 
ATOM      2  C   UNL     1     -22.585   6.068 -19.801  1.00  0.00     0.019 A 
ATOM      3  C   UNL     1     -22.170   6.621 -18.584  1.00  0.00     0.001 A 
ATOM      4  C   UNL     1     -20.984   6.194 -17.988  1.00  0.00     0.004 A 
ATOM      5  C   UNL     1     -20.205   5.219 -18.606  1.00  0.00     0.048 A 
ATOM      6  C   UNL     1     -20.613   4.682 -19.832  1.00  0.00     0.145 A 
ENDROOT
BRANCH   1   7
ATOM      7  C   UNL     1     -22.262   4.470 -21.713  1.00  0.00     0.339 C 
ATOM      8  O   UNL     1     -23.387   4.099 -21.993  1.00  0.00    -0.246 OA
BRANCH   7   9
ATOM      9  O   UNL     1     -21.262   4.346 -22.607  1.00  0.00    -0.478 OA
ATOM     10  H   UNL     1     -20.638   3.727 -22.173  1.00  0.00     0.297 HD
ENDBRANCH   7   9
ENDBRANCH   1   7
BRANCH   6  11
ATOM     11  O   UNL     1     -19.802   3.689 -20.390  1.00  0.00    -0.422 OA
BRANCH  11  12
ATOM     12  C   UNL     1     -19.985   2.459 -19.781  1.00  0.00     0.336 C 
ATOM     13  O   UNL     1     -20.958   2.078 -19.150  1.00  0.00    -0.246 OA
BRANCH  12  14
ATOM     14  C   UNL     1     -18.773   1.653 -20.048  1.00  0.00     0.094 C 
ATOM     15  C   UNL     1     -18.414   1.384 -21.313  1.00  0.00     0.015 C 
BRANCH  15  16
ATOM     16  C   UNL     1     -17.229   0.597 -21.674  1.00  0.00    -0.025 A 
ATOM     17  C   UNL     1     -16.661   0.644 -22.955  1.00  0.00     0.008 A 
ATOM     18  C   UNL     1     -16.612  -0.189 -20.692  1.00  0.00     0.008 A 
ATOM     19  C   UNL     1     -15.517  -0.101 -23.253  1.00  0.00     0.001 A 
ATOM     20  C   UNL     1     -15.469  -0.933 -20.989  1.00  0.00     0.001 A 
ATOM     21  C   UNL     1     -14.922  -0.892 -22.271  1.00  0.00     0.000 A 
ENDBRANCH  15  16
ENDBRANCH  12  14
ENDBRANCH  11  12
ENDBRANCH   6  11
TORSDOF 6
ENDMDL
MODEL 13
REMARK VINA RESULT:    -5.076      2.635      3.642
REMARK INTER + INTRA:          -7.238
REMARK INTER:                  -6.611
REMARK INTRA:                  -0.627
REMARK UNBOUND:                -0.530
REMARK SMILES O=C(/C=C/c1ccccc1)Oc1ccccc1C(=O)O
REMARK SMILES IDX 17 1 16 2 15 3 14 4 13 5 12 6 18 7 19 8 20 9 11 11 2 12 1 13
REMARK SMILES IDX 3 14 4 15 5 16 6 17 10 18 7 19 9 20 8 21
REMARK H PARENT 20 10
ROOT
ATOM      1  C   UNL     1     -20.922   4.683 -19.650  1.00  0.00     0.102 A 
ATOM      2  C   UNL     1     -21.417   5.455 -20.712  1.00  0.00     0.019 A 
ATOM      3  C   UNL     1     -22.312   4.903 -21.635  1.00  0.00     0.001 A 
ATOM      4  C   UNL     1     -22.717   3.575 -21.511  1.00  0.00     0.004 A 
ATOM      5  C   UNL     1     -22.236   2.795 -20.462  1.00  0.00     0.048 A 
ATOM      6  C   UNL     1     -21.355   3.356 -19.530  1.00  0.00     0.145 A 
ENDROOT
BRANCH   1   7
ATOM      7  C   UNL     1     -19.947   5.253 -18.684  1.00  0.00     0.339 C 
ATOM      8  O   UNL     1     -20.130   6.180 -17.916  1.00  0.00    -0.246 OA
BRANCH   7   9
ATOM      9  O   UNL     1     -18.757   4.623 -18.718  1.00  0.00    -0.478 OA
ATOM     10  H   UNL     1     -18.282   4.980 -17.939  1.00  0.00     0.297 HD
ENDBRANCH   7   9
ENDBRANCH   1   7
BRANCH   6  11
ATOM     11  O   UNL     1     -20.888   2.515 -18.516  1.00  0.00    -0.422 OA
BRANCH  11  12
ATOM     12  C   UNL     1     -20.717   1.212 -18.951  1.00  0.00     0.336 C 
ATOM     13  O   UNL     1     -21.383   0.233 -18.654  1.00  0.00    -0.246 OA
BRANCH  12  14
ATOM     14  C   UNL     1     -19.567   1.208 -19.883  1.00  0.00     0.094 C 
ATOM     15  C   UNL     1     -18.716   0.171 -19.892  1.00  0.00     0.015 C 
BRANCH  15  16
ATOM     16  C   UNL     1     -17.552   0.078 -20.781  1.00  0.00    -0.025 A 
ATOM     17  C   UNL     1     -16.400  -0.641 -20.434  1.00  0.00     0.008 A 
ATOM     18  C   UNL     1     -17.614   0.686 -22.043  1.00  0.00     0.008 A 
ATOM     19  C   UNL     1     -15.323  -0.727 -21.320  1.00  0.00     0.001 A 
ATOM     20  C   UNL     1     -16.537   0.600 -22.928  1.00  0.00     0.001 A 
ATOM     21  C   UNL     1     -15.390  -0.104 -22.565  1.00  0.00     0.000 A 
ENDBRANCH  15  16
ENDBRANCH  12  14
ENDBRANCH  11  12
ENDBRANCH   6  11
TORSDOF 6
ENDMDL
MODEL 14
REMARK VINA RESULT:    -5.070     12.459     13.932
REMARK INTER + INTRA:          -7.230
REMARK INTER:                  -6.513
REMARK INTRA:                  -0.716
REMARK UNBOUND:                -0.530
REMARK SMILES O=C(/C=C/c1ccccc1)Oc1ccccc1C(=O)O
REMARK SMILES IDX 17 1 16 2 15 3 14 4 13 5 12 6 18 7 19 8 20 9 11 11 2 12 1 13
REMARK SMILES IDX 3 14 4 15 5 16 6 17 10 18 7 19 9 20 8 21
REMARK H PARENT 20 10
ROOT
ATOM      1  C   UNL     1     -15.613   1.461  -9.896  1.00  0.00     0.102 A 
ATOM      2  C   UNL     1     -16.984   1.738  -9.794  1.00  0.00     0.019 A 
ATOM      3  C   UNL     1     -17.928   0.714  -9.929  1.00  0.00     0.001 A 
ATOM      4  C   UNL     1     -17.513  -0.595 -10.173  1.00  0.00     0.004 A 
ATOM      5  C   UNL     1     -16.155  -0.887 -10.276  1.00  0.00     0.048 A 
ATOM      6  C   UNL     1     -15.214   0.137 -10.122  1.00  0.00     0.145 A 
ENDROOT
BRANCH   1   7
ATOM      7  C   UNL     1     -14.606   2.549  -9.785  1.00  0.00     0.339 C 
ATOM      8  O   UNL     1     -14.555   3.418  -8.933  1.00  0.00    -0.246 OA
BRANCH   7   9
ATOM      9  O   UNL     1     -13.683   2.500 -10.765  1.00  0.00    -0.478 OA
ATOM     10  H   UNL     1     -13.751   3.380 -11.192  1.00  0.00     0.297 HD
ENDBRANCH   7   9
ENDBRANCH   1   7
BRANCH   6  11
ATOM     11  O   UNL     1     -13.868  -0.215 -10.262  1.00  0.00    -0.422 OA
BRANCH  11  12
ATOM     12  C   UNL     1     -13.302  -0.615  -9.063  1.00  0.00     0.336 C 
ATOM     13  O   UNL     1     -13.878  -1.024  -8.067  1.00  0.00    -0.246 OA
BRANCH  12  14
ATOM     14  C   UNL     1     -11.835  -0.478  -9.203  1.00  0.00     0.094 C 
ATOM     15  C   UNL     1     -11.280   0.742  -9.265  1.00  0.00     0.015 C 
BRANCH  15  16
ATOM     16  C   UNL     1      -9.837   0.976  -9.400  1.00  0.00    -0.025 A 
ATOM     17  C   UNL     1      -9.252   1.364 -10.613  1.00  0.00     0.008 A 
ATOM     18  C   UNL     1      -9.023   0.857  -8.265  1.00  0.00     0.008 A 
ATOM     19  C   UNL     1      -7.877   1.602 -10.694  1.00  0.00     0.001 A 
ATOM     20  C   UNL     1      -7.649   1.095  -8.346  1.00  0.00     0.001 A 
ATOM     21  C   UNL     1      -7.076   1.465  -9.561  1.00  0.00     0.000 A 
ENDBRANCH  15  16
ENDBRANCH  12  14
ENDBRANCH  11  12
ENDBRANCH   6  11
TORSDOF 6
ENDMDL
MODEL 15
REMARK VINA RESULT:    -4.959      6.085      8.563
REMARK INTER + INTRA:          -7.083
REMARK INTER:                  -6.832
REMARK INTRA:                  -0.251
REMARK UNBOUND:                -0.530
REMARK SMILES O=C(/C=C/c1ccccc1)Oc1ccccc1C(=O)O
REMARK SMILES IDX 17 1 16 2 15 3 14 4 13 5 12 6 18 7 19 8 20 9 11 11 2 12 1 13
REMARK SMILES IDX 3 14 4 15 5 16 6 17 10 18 7 19 9 20 8 21
REMARK H PARENT 20 10
ROOT
ATOM      1  C   UNL     1     -14.889  -0.742 -18.053  1.00  0.00     0.102 A 
ATOM      2  C   UNL     1     -15.441  -0.263 -16.855  1.00  0.00     0.019 A 
ATOM      3  C   UNL     1     -16.774  -0.537 -16.527  1.00  0.00     0.001 A 
ATOM      4  C   UNL     1     -17.570  -1.286 -17.393  1.00  0.00     0.004 A 
ATOM      5  C   UNL     1     -17.037  -1.769 -18.586  1.00  0.00     0.048 A 
ATOM      6  C   UNL     1     -15.699  -1.509 -18.902  1.00  0.00     0.145 A 
ENDROOT
BRANCH   1   7
ATOM      7  C   UNL     1     -13.485  -0.428 -18.423  1.00  0.00     0.339 C 
ATOM      8  O   UNL     1     -13.013   0.671 -18.650  1.00  0.00    -0.246 OA
BRANCH   7   9
ATOM      9  O   UNL     1     -12.711  -1.529 -18.492  1.00  0.00    -0.478 OA
ATOM     10  H   UNL     1     -12.778  -1.801 -19.432  1.00  0.00     0.297 HD
ENDBRANCH   7   9
ENDBRANCH   1   7
BRANCH   6  11
ATOM     11  O   UNL     1     -15.231  -1.999 -20.125  1.00  0.00    -0.422 OA
BRANCH  11  12
ATOM     12  C   UNL     1     -15.136  -1.007 -21.086  1.00  0.00     0.336 C 
ATOM     13  O   UNL     1     -14.237  -0.837 -21.895  1.00  0.00    -0.246 OA
BRANCH  12  14
ATOM     14  C   UNL     1     -16.354  -0.173 -20.978  1.00  0.00     0.094 C 
ATOM     15  C   UNL     1     -16.846   0.437 -22.066  1.00  0.00     0.015 C 
BRANCH  15  16
ATOM     16  C   UNL     1     -18.048   1.279 -22.056  1.00  0.00    -0.025 A 
ATOM     17  C   UNL     1     -18.634   1.763 -23.235  1.00  0.00     0.008 A 
ATOM     18  C   UNL     1     -18.663   1.567 -20.830  1.00  0.00     0.008 A 
ATOM     19  C   UNL     1     -19.794   2.540 -23.184  1.00  0.00     0.001 A 
ATOM     20  C   UNL     1     -19.822   2.344 -20.780  1.00  0.00     0.001 A 
ATOM     21  C   UNL     1     -20.386   2.834 -21.957  1.00  0.00     0.000 A 
ENDBRANCH  15  16
ENDBRANCH  12  14
ENDBRANCH  11  12
ENDBRANCH   6  11
TORSDOF 6
ENDMDL
MODEL 16
REMARK VINA RESULT:    -4.945     13.906     16.180
REMARK INTER + INTRA:          -7.065
REMARK INTER:                  -6.540
REMARK INTRA:                  -0.525
REMARK UNBOUND:                -0.530
REMARK SMILES O=C(/C=C/c1ccccc1)Oc1ccccc1C(=O)O
REMARK SMILES IDX 17 1 16 2 15 3 14 4 13 5 12 6 18 7 19 8 20 9 11 11 2 12 1 13
REMARK SMILES IDX 3 14 4 15 5 16 6 17 10 18 7 19 9 20 8 21
REMARK H PARENT 20 10
ROOT
ATOM      1  C   UNL     1      -7.948   1.797  -8.697  1.00  0.00     0.102 A 
ATOM      2  C   UNL     1      -6.552   1.936  -8.681  1.00  0.00     0.019 A 
ATOM      3  C   UNL     1      -5.725   0.808  -8.713  1.00  0.00     0.001 A 
ATOM      4  C   UNL     1      -6.282  -0.469  -8.757  1.00  0.00     0.004 A 
ATOM      5  C   UNL     1      -7.666  -0.625  -8.775  1.00  0.00     0.048 A 
ATOM      6  C   UNL     1      -8.489   0.506  -8.762  1.00  0.00     0.145 A 
ENDROOT
BRANCH   1   7
ATOM      7  C   UNL     1      -8.833   2.989  -8.631  1.00  0.00     0.339 C 
ATOM      8  O   UNL     1      -9.372   3.449  -7.641  1.00  0.00    -0.246 OA
BRANCH   7   9
ATOM      9  O   UNL     1      -9.008   3.570  -9.834  1.00  0.00    -0.478 OA
ATOM     10  H   UNL     1      -8.679   2.898 -10.467  1.00  0.00     0.297 HD
ENDBRANCH   7   9
ENDBRANCH   1   7
BRANCH   6  11
ATOM     11  O   UNL     1      -9.870   0.283  -8.755  1.00  0.00    -0.422 OA
BRANCH  11  12
ATOM     12  C   UNL     1     -10.423   0.379 -10.020  1.00  0.00     0.336 C 
ATOM     13  O   UNL     1      -9.905   0.079 -11.085  1.00  0.00    -0.246 OA
BRANCH  12  14
ATOM     14  C   UNL     1     -11.798   0.902  -9.860  1.00  0.00     0.094 C 
ATOM     15  C   UNL     1     -12.794   0.072  -9.514  1.00  0.00     0.015 C 
BRANCH  15  16
ATOM     16  C   UNL     1     -14.185   0.501  -9.328  1.00  0.00    -0.025 A 
ATOM     17  C   UNL     1     -14.646   1.755  -9.753  1.00  0.00     0.008 A 
ATOM     18  C   UNL     1     -15.098  -0.394  -8.753  1.00  0.00     0.008 A 
ATOM     19  C   UNL     1     -15.985   2.115  -9.581  1.00  0.00     0.001 A 
ATOM     20  C   UNL     1     -16.436  -0.033  -8.582  1.00  0.00     0.001 A 
ATOM     21  C   UNL     1     -16.879   1.223  -8.993  1.00  0.00     0.000 A 
ENDBRANCH  15  16
ENDBRANCH  12  14
ENDBRANCH  11  12
ENDBRANCH   6  11
TORSDOF 6
ENDMDL
MODEL 17
REMARK VINA RESULT:    -4.945      2.935      4.195
REMARK INTER + INTRA:          -7.064
REMARK INTER:                  -6.144
REMARK INTRA:                  -0.920
REMARK UNBOUND:                -0.530
REMARK SMILES O=C(/C=C/c1ccccc1)Oc1ccccc1C(=O)O
REMARK SMILES IDX 17 1 16 2 15 3 14 4 13 5 12 6 18 7 19 8 20 9 11 11 2 12 1 13
REMARK SMILES IDX 3 14 4 15 5 16 6 17 10 18 7 19 9 20 8 21
REMARK H PARENT 20 10
ROOT
ATOM      1  C   UNL     1     -21.477   4.075 -21.169  1.00  0.00     0.102 A 
ATOM      2  C   UNL     1     -21.603   5.202 -20.343  1.00  0.00     0.019 A 
ATOM      3  C   UNL     1     -20.639   5.480 -19.368  1.00  0.00     0.001 A 
ATOM      4  C   UNL     1     -19.544   4.633 -19.203  1.00  0.00     0.004 A 
ATOM      5  C   UNL     1     -19.404   3.510 -20.015  1.00  0.00     0.048 A 
ATOM      6  C   UNL     1     -20.360   3.246 -21.002  1.00  0.00     0.145 A 
ENDROOT
BRANCH   1   7
ATOM      7  C   UNL     1     -22.513   3.757 -22.186  1.00  0.00     0.339 C 
ATOM      8  O   UNL     1     -23.618   3.286 -21.986  1.00  0.00    -0.246 OA
BRANCH   7   9
ATOM      9  O   UNL     1     -22.115   4.050 -23.439  1.00  0.00    -0.478 OA
ATOM     10  H   UNL     1     -22.759   3.576 -24.005  1.00  0.00     0.297 HD
ENDBRANCH   7   9
ENDBRANCH   1   7
BRANCH   6  11
ATOM     11  O   UNL     1     -20.177   2.090 -21.767  1.00  0.00    -0.422 OA
BRANCH  11  12
ATOM     12  C   UNL     1     -19.293   2.289 -22.815  1.00  0.00     0.336 C 
ATOM     13  O   UNL     1     -19.509   2.857 -23.874  1.00  0.00    -0.246 OA
BRANCH  12  14
ATOM     14  C   UNL     1     -17.997   1.696 -22.414  1.00  0.00     0.094 C 
ATOM     15  C   UNL     1     -17.974   0.574 -21.679  1.00  0.00     0.015 C 
BRANCH  15  16
ATOM     16  C   UNL     1     -16.739  -0.087 -21.239  1.00  0.00    -0.025 A 
ATOM     17  C   UNL     1     -15.740  -0.483 -22.139  1.00  0.00     0.008 A 
ATOM     18  C   UNL     1     -16.528  -0.282 -19.868  1.00  0.00     0.008 A 
ATOM     19  C   UNL     1     -14.567  -1.086 -21.677  1.00  0.00     0.001 A 
ATOM     20  C   UNL     1     -15.355  -0.885 -19.407  1.00  0.00     0.001 A 
ATOM     21  C   UNL     1     -14.376  -1.290 -20.312  1.00  0.00     0.000 A 
ENDBRANCH  15  16
ENDBRANCH  12  14
ENDBRANCH  11  12
ENDBRANCH   6  11
TORSDOF 6
ENDMDL
MODEL 18
REMARK VINA RESULT:    -4.880      5.777      9.264
REMARK INTER + INTRA:          -6.979
REMARK INTER:                  -6.007
REMARK INTRA:                  -0.972
REMARK UNBOUND:                -0.530
REMARK SMILES O=C(/C=C/c1ccccc1)Oc1ccccc1C(=O)O
REMARK SMILES IDX 17 1 16 2 15 3 14 4 13 5 12 6 18 7 19 8 20 9 11 11 2 12 1 13
REMARK SMILES IDX 3 14 4 15 5 16 6 17 10 18 7 19 9 20 8 21
REMARK H PARENT 20 10
ROOT
ATOM      1  C   UNL     1     -15.472  -1.784 -16.851  1.00  0.00     0.102 A 
ATOM      2  C   UNL     1     -14.979  -1.864 -15.540  1.00  0.00     0.019 A 
ATOM      3  C   UNL     1     -13.862  -2.655 -15.248  1.00  0.00     0.001 A 
ATOM      4  C   UNL     1     -13.230  -3.377 -16.259  1.00  0.00     0.004 A 
ATOM      5  C   UNL     1     -13.706  -3.308 -17.566  1.00  0.00     0.048 A 
ATOM      6  C   UNL     1     -14.812  -2.502 -17.858  1.00  0.00     0.145 A 
ENDROOT
BRANCH   1   7
ATOM      7  C   UNL     1     -16.677  -0.972 -17.164  1.00  0.00     0.339 C 
ATOM      8  O   UNL     1     -16.794   0.236 -17.065  1.00  0.00    -0.246 OA
BRANCH   7   9
ATOM      9  O   UNL     1     -17.708  -1.723 -17.599  1.00  0.00    -0.478 OA
ATOM     10  H   UNL     1     -18.177  -1.972 -16.775  1.00  0.00     0.297 HD
ENDBRANCH   7   9
ENDBRANCH   1   7
BRANCH   6  11
ATOM     11  O   UNL     1     -15.258  -2.495 -19.183  1.00  0.00    -0.422 OA
BRANCH  11  12
ATOM     12  C   UNL     1     -14.461  -1.711 -20.001  1.00  0.00     0.336 C 
ATOM     13  O   UNL     1     -13.307  -1.920 -20.339  1.00  0.00    -0.246 OA
BRANCH  12  14
ATOM     14  C   UNL     1     -15.276  -0.551 -20.425  1.00  0.00     0.094 C 
ATOM     15  C   UNL     1     -16.557  -0.728 -20.782  1.00  0.00     0.015 C 
BRANCH  15  16
ATOM     16  C   UNL     1     -17.442   0.361 -21.212  1.00  0.00    -0.025 A 
ATOM     17  C   UNL     1     -18.366   0.962 -20.346  1.00  0.00     0.008 A 
ATOM     18  C   UNL     1     -17.323   0.854 -22.519  1.00  0.00     0.008 A 
ATOM     19  C   UNL     1     -19.173   2.014 -20.788  1.00  0.00     0.001 A 
ATOM     20  C   UNL     1     -18.130   1.906 -22.960  1.00  0.00     0.001 A 
ATOM     21  C   UNL     1     -19.057   2.484 -22.095  1.00  0.00     0.000 A 
ENDBRANCH  15  16
ENDBRANCH  12  14
ENDBRANCH  11  12
ENDBRANCH   6  11
TORSDOF 6
ENDMDL
MODEL 19
REMARK VINA RESULT:    -4.874      8.044      9.537
REMARK INTER + INTRA:          -6.971
REMARK INTER:                  -6.071
REMARK INTRA:                  -0.900
REMARK UNBOUND:                -0.530
REMARK SMILES O=C(/C=C/c1ccccc1)Oc1ccccc1C(=O)O
REMARK SMILES IDX 17 1 16 2 15 3 14 4 13 5 12 6 18 7 19 8 20 9 11 11 2 12 1 13
REMARK SMILES IDX 3 14 4 15 5 16 6 17 10 18 7 19 9 20 8 21
REMARK H PARENT 20 10
ROOT
ATOM      1  C   UNL     1     -16.841   0.979 -10.660  1.00  0.00     0.102 A 
ATOM      2  C   UNL     1     -17.921   1.350  -9.844  1.00  0.00     0.019 A 
ATOM      3  C   UNL     1     -19.228   1.335 -10.345  1.00  0.00     0.001 A 
ATOM      4  C   UNL     1     -19.469   0.956 -11.664  1.00  0.00     0.004 A 
ATOM      5  C   UNL     1     -18.409   0.585 -12.487  1.00  0.00     0.048 A 
ATOM      6  C   UNL     1     -17.106   0.582 -11.978  1.00  0.00     0.145 A 
ENDROOT
BRANCH   1   7
ATOM      7  C   UNL     1     -15.448   1.022 -10.145  1.00  0.00     0.339 C 
ATOM      8  O   UNL     1     -15.019   0.485  -9.141  1.00  0.00    -0.246 OA
BRANCH   7   9
ATOM      9  O   UNL     1     -14.630   1.752 -10.929  1.00  0.00    -0.478 OA
ATOM     10  H   UNL     1     -14.682   2.652 -10.545  1.00  0.00     0.297 HD
ENDBRANCH   7   9
ENDBRANCH   1   7
BRANCH   6  11
ATOM     11  O   UNL     1     -16.082   0.225 -12.861  1.00  0.00    -0.422 OA
BRANCH  11  12
ATOM     12  C   UNL     1     -16.089  -1.129 -13.151  1.00  0.00     0.336 C 
ATOM     13  O   UNL     1     -16.386  -2.050 -12.406  1.00  0.00    -0.246 OA
BRANCH  12  14
ATOM     14  C   UNL     1     -15.683  -1.276 -14.567  1.00  0.00     0.094 C 
ATOM     15  C   UNL     1     -16.166  -0.434 -15.493  1.00  0.00     0.015 C 
BRANCH  15  16
ATOM     16  C   UNL     1     -15.818  -0.501 -16.917  1.00  0.00    -0.025 A 
ATOM     17  C   UNL     1     -16.792  -0.555 -17.924  1.00  0.00     0.008 A 
ATOM     18  C   UNL     1     -14.467  -0.456 -17.286  1.00  0.00     0.008 A 
ATOM     19  C   UNL     1     -16.419  -0.591 -19.271  1.00  0.00     0.001 A 
ATOM     20  C   UNL     1     -14.095  -0.493 -18.632  1.00  0.00     0.001 A 
ATOM     21  C   UNL     1     -15.071  -0.563 -19.624  1.00  0.00     0.000 A 
ENDBRANCH  15  16
ENDBRANCH  12  14
ENDBRANCH  11  12
ENDBRANCH   6  11
TORSDOF 6
ENDMDL
MODEL 20
REMARK VINA RESULT:    -4.848      6.430      8.759
REMARK INTER + INTRA:          -6.937
REMARK INTER:                  -5.878
REMARK INTRA:                  -1.059
REMARK UNBOUND:                -0.530
REMARK SMILES O=C(/C=C/c1ccccc1)Oc1ccccc1C(=O)O
REMARK SMILES IDX 17 1 16 2 15 3 14 4 13 5 12 6 18 7 19 8 20 9 11 11 2 12 1 13
REMARK SMILES IDX 3 14 4 15 5 16 6 17 10 18 7 19 9 20 8 21
REMARK H PARENT 20 10
ROOT
ATOM      1  C   UNL     1     -16.516   0.055 -22.165  1.00  0.00     0.102 A 
ATOM      2  C   UNL     1     -17.192   1.094 -22.822  1.00  0.00     0.019 A 
ATOM      3  C   UNL     1     -18.221   1.791 -22.178  1.00  0.00     0.001 A 
ATOM      4  C   UNL     1     -18.589   1.454 -20.876  1.00  0.00     0.004 A 
ATOM      5  C   UNL     1     -17.928   0.426 -20.210  1.00  0.00     0.048 A 
ATOM      6  C   UNL     1     -16.887  -0.256 -20.849  1.00  0.00     0.145 A 
ENDROOT
BRANCH   1   7
ATOM      7  C   UNL     1     -15.444  -0.711 -22.853  1.00  0.00     0.339 C 
ATOM      8  O   UNL     1     -15.563  -1.421 -23.834  1.00  0.00    -0.246 OA
BRANCH   7   9
ATOM      9  O   UNL     1     -14.240  -0.549 -22.271  1.00  0.00    -0.478 OA
ATOM     10  H   UNL     1     -14.363  -0.923 -21.373  1.00  0.00     0.297 HD
ENDBRANCH   7   9
ENDBRANCH   1   7
BRANCH   6  11
ATOM     11  O   UNL     1     -16.280  -1.295 -20.137  1.00  0.00    -0.422 OA
BRANCH  11  12
ATOM     12  C   UNL     1     -15.420  -0.828 -19.158  1.00  0.00     0.336 C 
ATOM     13  O   UNL     1     -14.368  -0.227 -19.314  1.00  0.00    -0.246 OA
BRANCH  12  14
ATOM     14  C   UNL     1     -16.017  -1.173 -17.849  1.00  0.00     0.094 C 
ATOM     15  C   UNL     1     -16.274  -0.206 -16.955  1.00  0.00     0.015 C 
BRANCH  15  16
ATOM     16  C   UNL     1     -16.868  -0.452 -15.635  1.00  0.00    -0.025 A 
ATOM     17  C   UNL     1     -16.182  -0.178 -14.443  1.00  0.00     0.008 A 
ATOM     18  C   UNL     1     -18.184  -0.927 -15.563  1.00  0.00     0.008 A 
ATOM     19  C   UNL     1     -16.792  -0.402 -13.206  1.00  0.00     0.001 A 
ATOM     20  C   UNL     1     -18.793  -1.151 -14.326  1.00  0.00     0.001 A 
ATOM     21  C   UNL     1     -18.096  -0.891 -13.147  1.00  0.00     0.000 A 
ENDBRANCH  15  16
ENDBRANCH  12  14
ENDBRANCH  11  12
ENDBRANCH   6  11
TORSDOF 6
ENDMDL
